
    -----------------------------------------------------------------------
          Psi4: An Open-Source Ab Initio Electronic Structure Package
                               Psi4 1.2.1 release

                         Git: Rev {HEAD} 406f4de 


    R. M. Parrish, L. A. Burns, D. G. A. Smith, A. C. Simmonett,
    A. E. DePrince III, E. G. Hohenstein, U. Bozkaya, A. Yu. Sokolov,
    R. Di Remigio, R. M. Richard, J. F. Gonthier, A. M. James,
    H. R. McAlexander, A. Kumar, M. Saitow, X. Wang, B. P. Pritchard,
    P. Verma, H. F. Schaefer III, K. Patkowski, R. A. King, E. F. Valeev,
    F. A. Evangelista, J. M. Turney, T. D. Crawford, and C. D. Sherrill,
    J. Chem. Theory Comput. 13(7) pp 3185--3197 (2017).
    (doi: 10.1021/acs.jctc.7b00174)


                         Additional Contributions by
    P. Kraus, H. Kruse, M. H. Lechner, M. C. Schieber, and R. A. Shaw

    -----------------------------------------------------------------------


    Psi4 started on: Sunday, 25 November 2018 08:09PM

    Process ID: 25575
    Host:       sophon
    PSIDATADIR: /home/hyesu/anaconda3/envs/respyte/share/psi4
    Memory:     500.0 MiB
    Threads:    1
    
  ==> Input File <==

--------------------------------------------------------------------------
memory 12 gb
molecule meoh {
noreorient
nocom
0 1
H    -4.6040    -0.4820     1.6820
C    -3.9980     0.3660     1.3950
H    -3.5820     0.8300     2.2810
H    -4.6430     1.0820     0.8960
C    -2.9490    -0.0970     0.4100
O    -3.2320    -0.8190    -0.5140
N    -1.6970     0.3630     0.6110
H    -1.5010     0.8980     1.4260
C    -0.5880     0.0730    -0.2890
H    -1.0070    -0.0170    -1.2820
C     0.4340     1.2050    -0.2470
H    -0.0970     2.1470    -0.3550
H     0.9000     1.2040     0.7310
C     1.4940     1.0870    -1.3490
H     1.8670     0.0710    -1.3990
H     1.0230     1.2880    -2.3080
C     2.6860     2.0350    -1.1780
H     3.3260     1.9320    -2.0490
H     2.3370     3.0660    -1.1590
C     3.5380     1.7800     0.0680
H     4.4020     2.4350     0.0230
H     2.9850     2.0670     0.9640
N     4.0190     0.4070     0.1110
H     4.7280     0.3090     0.8110
H     3.2790    -0.2230     0.3600
C     0.0450    -1.2710     0.1080
O     1.0550    -1.3320     0.7650
N    -0.6200    -2.3550    -0.3200
H    -1.5260    -2.2150    -0.7140
C    -0.2230    -3.6890     0.0730
H    -0.7860    -4.4030    -0.5120
H     0.8310    -3.8310    -0.1160
H    -0.4080    -3.8730     1.1260
}
set {
basis 6-31g*
}
E,wfn = prop('HF' , properties = ['GRID_ESP', 'GRID_FIELD'], return_wfn=True)
--------------------------------------------------------------------------

  Memory set to  11.176 GiB by Python driver.

*** tstart() called on sophon
*** at Sun Nov 25 20:09:55 2018

   => Loading Basis Set <=

    Name: 6-31G*
    Role: ORBITAL
    Keyword: BASIS
    atoms 1, 3-4, 8, 10, 12-13, 15-16, 18-19, 21-22, 24-25, 29, 31-33 entry H          line    44 file /home/hyesu/anaconda3/envs/respyte/share/psi4/basis/6-31gs.gbs 
    atoms 2, 5, 9, 11, 14, 17, 20, 26, 30                             entry C          line   111 file /home/hyesu/anaconda3/envs/respyte/share/psi4/basis/6-31gs.gbs 
    atoms 6, 27                                                       entry O          line   145 file /home/hyesu/anaconda3/envs/respyte/share/psi4/basis/6-31gs.gbs 
    atoms 7, 23, 28                                                   entry N          line   128 file /home/hyesu/anaconda3/envs/respyte/share/psi4/basis/6-31gs.gbs 


         ---------------------------------------------------------
                                   SCF
            by Justin Turney, Rob Parrish, Andy Simmonett
                             and Daniel Smith
                              RHF Reference
                        1 Threads,  11444 MiB Core
         ---------------------------------------------------------

  ==> Geometry <==

    Molecular point group: c1
    Full point group: C1

    Geometry (in Angstrom), charge = 0, multiplicity = 1:

       Center              X                  Y                   Z               Mass       
    ------------   -----------------  -----------------  -----------------  -----------------
         H           -4.604000000000    -0.482000000000     1.682000000000     1.007825032070
         C           -3.998000000000     0.366000000000     1.395000000000    12.000000000000
         H           -3.582000000000     0.830000000000     2.281000000000     1.007825032070
         H           -4.643000000000     1.082000000000     0.896000000000     1.007825032070
         C           -2.949000000000    -0.097000000000     0.410000000000    12.000000000000
         O           -3.232000000000    -0.819000000000    -0.514000000000    15.994914619560
         N           -1.697000000000     0.363000000000     0.611000000000    14.003074004780
         H           -1.501000000000     0.898000000000     1.426000000000     1.007825032070
         C           -0.588000000000     0.073000000000    -0.289000000000    12.000000000000
         H           -1.007000000000    -0.017000000000    -1.282000000000     1.007825032070
         C            0.434000000000     1.205000000000    -0.247000000000    12.000000000000
         H           -0.097000000000     2.147000000000    -0.355000000000     1.007825032070
         H            0.900000000000     1.204000000000     0.731000000000     1.007825032070
         C            1.494000000000     1.087000000000    -1.349000000000    12.000000000000
         H            1.867000000000     0.071000000000    -1.399000000000     1.007825032070
         H            1.023000000000     1.288000000000    -2.308000000000     1.007825032070
         C            2.686000000000     2.035000000000    -1.178000000000    12.000000000000
         H            3.326000000000     1.932000000000    -2.049000000000     1.007825032070
         H            2.337000000000     3.066000000000    -1.159000000000     1.007825032070
         C            3.538000000000     1.780000000000     0.068000000000    12.000000000000
         H            4.402000000000     2.435000000000     0.023000000000     1.007825032070
         H            2.985000000000     2.067000000000     0.964000000000     1.007825032070
         N            4.019000000000     0.407000000000     0.111000000000    14.003074004780
         H            4.728000000000     0.309000000000     0.811000000000     1.007825032070
         H            3.279000000000    -0.223000000000     0.360000000000     1.007825032070
         C            0.045000000000    -1.271000000000     0.108000000000    12.000000000000
         O            1.055000000000    -1.332000000000     0.765000000000    15.994914619560
         N           -0.620000000000    -2.355000000000    -0.320000000000    14.003074004780
         H           -1.526000000000    -2.215000000000    -0.714000000000     1.007825032070
         C           -0.223000000000    -3.689000000000     0.073000000000    12.000000000000
         H           -0.786000000000    -4.403000000000    -0.512000000000     1.007825032070
         H            0.831000000000    -3.831000000000    -0.116000000000     1.007825032070
         H           -0.408000000000    -3.873000000000     1.126000000000     1.007825032070

  Running in c1 symmetry.

  Rotational constants: A =      0.03183  B =      0.01231  C =      0.00991 [cm^-1]
  Rotational constants: A =    954.31854  B =    368.91360  C =    297.06230 [MHz]
  Nuclear repulsion =  964.109567843895206

  Charge       = 0
  Multiplicity = 1
  Electrons    = 110
  Nalpha       = 55
  Nbeta        = 55

  ==> Algorithm <==

  SCF Algorithm Type is DF.
  DIIS enabled.
  MOM disabled.
  Fractional occupation disabled.
  Guess Type is SAD.
  Energy threshold   = 1.00e-06
  Density threshold  = 1.00e-06
  Integral threshold = 0.00e+00

  ==> Primary Basis <==

  Basis Set: 6-31G*
    Blend: 6-31G*
    Number of shells: 122
    Number of basis function: 248
    Number of Cartesian functions: 248
    Spherical Harmonics?: false
    Max angular momentum: 2

   => Loading Basis Set <=

    Name: (6-31G* AUX)
    Role: JKFIT
    Keyword: DF_BASIS_SCF
    atoms 1, 3-4, 8, 10, 12-13, 15-16, 18-19, 21-22, 24-25, 29, 31-33 entry H          line    51 file /home/hyesu/anaconda3/envs/respyte/share/psi4/basis/cc-pvdz-jkfit.gbs 
    atoms 2, 5, 9, 11, 14, 17, 20, 26, 30                             entry C          line   121 file /home/hyesu/anaconda3/envs/respyte/share/psi4/basis/cc-pvdz-jkfit.gbs 
    atoms 6, 27                                                       entry O          line   221 file /home/hyesu/anaconda3/envs/respyte/share/psi4/basis/cc-pvdz-jkfit.gbs 
    atoms 7, 23, 28                                                   entry N          line   171 file /home/hyesu/anaconda3/envs/respyte/share/psi4/basis/cc-pvdz-jkfit.gbs 

  ==> Pre-Iterations <==

   -------------------------------------------------------
    Irrep   Nso     Nmo     Nalpha   Nbeta   Ndocc  Nsocc
   -------------------------------------------------------
     A        248     248       0       0       0       0
   -------------------------------------------------------
    Total     248     248      55      55      55       0
   -------------------------------------------------------

  ==> Integral Setup <==

  ==> DiskDFJK: Density-Fitted J/K Matrices <==

    J tasked:                  Yes
    K tasked:                  Yes
    wK tasked:                  No
    OpenMP threads:              1
    Integrals threads:           1
    Memory (MB):              8583
    Algorithm:                Core
    Integral Cache:           NONE
    Schwarz Cutoff:          1E-12
    Fitting Condition:       1E-12

   => Auxiliary Basis Set <=

  Basis Set: (6-31G* AUX)
    Blend: CC-PVDZ-JKFIT
    Number of shells: 507
    Number of basis function: 1609
    Number of Cartesian functions: 1609
    Spherical Harmonics?: false
    Max angular momentum: 3

  Minimum eigenvalue in the overlap matrix is 1.9293802163E-03.
  Using Symmetric Orthogonalization.

  SCF Guess: Superposition of Atomic Densities via on-the-fly atomic UHF.

  ==> Iterations <==

                           Total Energy        Delta E     RMS |[F,P]|

   @DF-RHF iter   0:  -670.90927717221439   -6.70909e+02   2.85890e-02 
   @DF-RHF iter   1:  -664.56814174629358    6.34114e+00   3.27310e-03 
   @DF-RHF iter   2:  -664.89003257867410   -3.21891e-01   1.83264e-03 DIIS
   @DF-RHF iter   3:  -664.97191223396067   -8.18797e-02   5.39613e-04 DIIS
   @DF-RHF iter   4:  -664.98277565724561   -1.08634e-02   1.49627e-04 DIIS
   @DF-RHF iter   5:  -664.98369095799944   -9.15301e-04   3.77359e-05 DIIS
   @DF-RHF iter   6:  -664.98378780968460   -9.68517e-05   1.38371e-05 DIIS
   @DF-RHF iter   7:  -664.98380196658991   -1.41569e-05   4.94708e-06 DIIS
   @DF-RHF iter   8:  -664.98380421614036   -2.24955e-06   2.17877e-06 DIIS
   @DF-RHF iter   9:  -664.98380473366535   -5.17525e-07   7.20066e-07 DIIS

  ==> Post-Iterations <==

    Orbital Energies [Eh]
    ---------------------

    Doubly Occupied:                                                      

       1A    -20.535673     2A    -20.524355     3A    -15.601773  
       4A    -15.576845     5A    -15.516710     6A    -11.363751  
       7A    -11.342142     8A    -11.280186     9A    -11.251893  
      10A    -11.243887    11A    -11.233246    12A    -11.226633  
      13A    -11.214751    14A    -11.208740    15A     -1.405355  
      16A     -1.389067    17A     -1.252957    18A     -1.226539  
      19A     -1.164868    20A     -1.083155    21A     -1.031696  
      22A     -0.992629    23A     -0.961051    24A     -0.907813  
      25A     -0.848961    26A     -0.812132    27A     -0.782731  
      28A     -0.766099    29A     -0.729636    30A     -0.690446  
      31A     -0.677039    32A     -0.662605    33A     -0.647587  
      34A     -0.628745    35A     -0.624275    36A     -0.618730  
      37A     -0.609421    38A     -0.594810    39A     -0.578186  
      40A     -0.571008    41A     -0.566033    42A     -0.548804  
      43A     -0.543759    44A     -0.530418    45A     -0.521660  
      46A     -0.518925    47A     -0.501827    48A     -0.470850  
      49A     -0.465342    50A     -0.457763    51A     -0.442694  
      52A     -0.429637    53A     -0.389323    54A     -0.383739  
      55A     -0.367913  

    Virtual:                                                              

      56A      0.180164    57A      0.203988    58A      0.216868  
      59A      0.229112    60A      0.253128    61A      0.261416  
      62A      0.268867    63A      0.281721    64A      0.285321  
      65A      0.293057    66A      0.302047    67A      0.308974  
      68A      0.315306    69A      0.328108    70A      0.329049  
      71A      0.337464    72A      0.339888    73A      0.348834  
      74A      0.368550    75A      0.379560    76A      0.380967  
      77A      0.392164    78A      0.398159    79A      0.407157  
      80A      0.433759    81A      0.441224    82A      0.448585  
      83A      0.452042    84A      0.461516    85A      0.488197  
      86A      0.519841    87A      0.548801    88A      0.604672  
      89A      0.637364    90A      0.701037    91A      0.719929  
      92A      0.731269    93A      0.738886    94A      0.748423  
      95A      0.759968    96A      0.775825    97A      0.778759  
      98A      0.785228    99A      0.801157   100A      0.809352  
     101A      0.821405   102A      0.830691   103A      0.856059  
     104A      0.886617   105A      0.917989   106A      0.928703  
     107A      0.938345   108A      0.944858   109A      0.953258  
     110A      0.970755   111A      0.984547   112A      0.997178  
     113A      1.013768   114A      1.019550   115A      1.030550  
     116A      1.046027   117A      1.058078   118A      1.072204  
     119A      1.084610   120A      1.097755   121A      1.115555  
     122A      1.125273   123A      1.129920   124A      1.136189  
     125A      1.143693   126A      1.147667   127A      1.168001  
     128A      1.175664   129A      1.178422   130A      1.189949  
     131A      1.196029   132A      1.206440   133A      1.215208  
     134A      1.218088   135A      1.221021   136A      1.228705  
     137A      1.234248   138A      1.249707   139A      1.257680  
     140A      1.268341   141A      1.276309   142A      1.278999  
     143A      1.287509   144A      1.310525   145A      1.344982  
     146A      1.359147   147A      1.377721   148A      1.412457  
     149A      1.452900   150A      1.469244   151A      1.498322  
     152A      1.521685   153A      1.540635   154A      1.559210  
     155A      1.579995   156A      1.613384   157A      1.630419  
     158A      1.649238   159A      1.693191   160A      1.717587  
     161A      1.731880   162A      1.746455   163A      1.768253  
     164A      1.793212   165A      1.814046   166A      1.848751  
     167A      1.861205   168A      1.908243   169A      1.935412  
     170A      1.953660   171A      1.987900   172A      2.011275  
     173A      2.029065   174A      2.062212   175A      2.093158  
     176A      2.109594   177A      2.121978   178A      2.128794  
     179A      2.158635   180A      2.162438   181A      2.182905  
     182A      2.199444   183A      2.207085   184A      2.228801  
     185A      2.240753   186A      2.264846   187A      2.280333  
     188A      2.296558   189A      2.301664   190A      2.320544  
     191A      2.329809   192A      2.364025   193A      2.370196  
     194A      2.397673   195A      2.414155   196A      2.423946  
     197A      2.454048   198A      2.467050   199A      2.497206  
     200A      2.537621   201A      2.548747   202A      2.570710  
     203A      2.595767   204A      2.606451   205A      2.632007  
     206A      2.638067   207A      2.686769   208A      2.713147  
     209A      2.717235   210A      2.720624   211A      2.723196  
     212A      2.763872   213A      2.774775   214A      2.803837  
     215A      2.811394   216A      2.872995   217A      2.896239  
     218A      2.930570   219A      2.951985   220A      2.966195  
     221A      2.986742   222A      3.009223   223A      3.054604  
     224A      3.064302   225A      3.075738   226A      3.118500  
     227A      3.137825   228A      3.206180   229A      3.290736  
     230A      3.345845   231A      3.384642   232A      3.432422  
     233A      3.561626   234A      3.573891   235A      4.272530  
     236A      4.415406   237A      4.448687   238A      4.482831  
     239A      4.591327   240A      4.618671   241A      4.641114  
     242A      4.744948   243A      4.778878   244A      4.852030  
     245A      4.904811   246A      4.917027   247A      5.003834  
     248A      5.073487  

    Final Occupation by Irrep:
              A 
    DOCC [    55 ]

  Energy converged.

  @DF-RHF Final Energy:  -664.98380473366535

   => Energetics <=

    Nuclear Repulsion Energy =            964.1095678438952064
    One-Electron Energy =               -2821.1530885474476236
    Two-Electron Energy =                1192.0597159698872929
    Total Energy =                       -664.9838047336652380



Properties will be evaluated at   0.000000,   0.000000,   0.000000 [a0]

Properties computed using the HF density matrix

  Nuclear Dipole Moment: [e a0]
     X:     8.7986      Y:   -32.2841      Z:    -1.5609

  Electronic Dipole Moment: [e a0]
     X:    -9.8126      Y:    32.9806      Z:     2.4508

  Dipole Moment: [e a0]
     X:    -1.0140      Y:     0.6965      Z:     0.8899     Total:     1.5183

  Dipole Moment: [D]
     X:    -2.5773      Y:     1.7703      Z:     2.2618     Total:     3.8590


 Field computed on the grid and written to grid_field.dat

 Electrostatic potential computed on the grid and written to grid_esp.dat

*** tstop() called on sophon at Sun Nov 25 20:12:26 2018
Module time:
	user time   =     149.95 seconds =       2.50 minutes
	system time =       0.82 seconds =       0.01 minutes
	total time  =        151 seconds =       2.52 minutes
Total time:
	user time   =     149.95 seconds =       2.50 minutes
	system time =       0.82 seconds =       0.01 minutes
	total time  =        151 seconds =       2.52 minutes

    Psi4 stopped on: Sunday, 25 November 2018 08:12PM
    Psi4 wall time for execution: 0:02:30.81

*** Psi4 exiting successfully. Buy a developer a beer!
