
    -----------------------------------------------------------------------
          Psi4: An Open-Source Ab Initio Electronic Structure Package
                               Psi4 1.2.1 release

                         Git: Rev {HEAD} 406f4de 


    R. M. Parrish, L. A. Burns, D. G. A. Smith, A. C. Simmonett,
    A. E. DePrince III, E. G. Hohenstein, U. Bozkaya, A. Yu. Sokolov,
    R. Di Remigio, R. M. Richard, J. F. Gonthier, A. M. James,
    H. R. McAlexander, A. Kumar, M. Saitow, X. Wang, B. P. Pritchard,
    P. Verma, H. F. Schaefer III, K. Patkowski, R. A. King, E. F. Valeev,
    F. A. Evangelista, J. M. Turney, T. D. Crawford, and C. D. Sherrill,
    J. Chem. Theory Comput. 13(7) pp 3185--3197 (2017).
    (doi: 10.1021/acs.jctc.7b00174)


                         Additional Contributions by
    P. Kraus, H. Kruse, M. H. Lechner, M. C. Schieber, and R. A. Shaw

    -----------------------------------------------------------------------


    Psi4 started on: Sunday, 25 November 2018 08:46PM

    Process ID: 26600
    Host:       sophon
    PSIDATADIR: /home/hyesu/anaconda3/envs/respyte/share/psi4
    Memory:     500.0 MiB
    Threads:    1
    
  ==> Input File <==

--------------------------------------------------------------------------
memory 12 gb
molecule meoh {
noreorient
nocom
0 1
H     2.9950     1.3590     1.0850
C     3.0320     0.2810     0.9760
H     3.4780    -0.1550     1.8560
H     3.6480     0.0560     0.1120
C     1.6420    -0.2960     0.8170
O     1.2190    -1.1190     1.5960
N     0.9030     0.1540    -0.2200
C     1.3800     1.0510    -1.2760
H     2.2400     0.6200    -1.7810
H     1.6750     2.0110    -0.8720
C     0.1850     1.1580    -2.2250
H     0.4990     1.3400    -3.2460
H    -0.4680     1.9650    -1.9190
C    -0.5350    -0.1790    -2.0440
H    -0.0260    -0.9610    -2.5990
H    -1.5680    -0.1450    -2.3560
C    -0.3930    -0.4560    -0.5470
H    -0.3520    -1.5120    -0.3210
C    -1.5270     0.1810     0.2720
O    -2.3100     0.9540    -0.2180
N    -1.5790    -0.2030     1.5570
H    -0.8190    -0.7410     1.9130
C    -2.5330     0.3780     2.4750
H    -3.5370     0.2820     2.0840
H    -2.4700    -0.1510     3.4160
H    -2.3370     1.4310     2.6490
}
set {
basis 6-31g*
}
E,wfn = prop('HF' , properties = ['GRID_ESP', 'GRID_FIELD'], return_wfn=True)
--------------------------------------------------------------------------

  Memory set to  11.176 GiB by Python driver.

*** tstart() called on sophon
*** at Sun Nov 25 20:46:20 2018

   => Loading Basis Set <=

    Name: 6-31G*
    Role: ORBITAL
    Keyword: BASIS
    atoms 1, 3-4, 9-10, 12-13, 15-16, 18, 22, 24-26 entry H          line    44 file /home/hyesu/anaconda3/envs/respyte/share/psi4/basis/6-31gs.gbs 
    atoms 2, 5, 8, 11, 14, 17, 19, 23               entry C          line   111 file /home/hyesu/anaconda3/envs/respyte/share/psi4/basis/6-31gs.gbs 
    atoms 6, 20                                     entry O          line   145 file /home/hyesu/anaconda3/envs/respyte/share/psi4/basis/6-31gs.gbs 
    atoms 7, 21                                     entry N          line   128 file /home/hyesu/anaconda3/envs/respyte/share/psi4/basis/6-31gs.gbs 


         ---------------------------------------------------------
                                   SCF
            by Justin Turney, Rob Parrish, Andy Simmonett
                             and Daniel Smith
                              RHF Reference
                        1 Threads,  11444 MiB Core
         ---------------------------------------------------------

  ==> Geometry <==

    Molecular point group: c1
    Full point group: C1

    Geometry (in Angstrom), charge = 0, multiplicity = 1:

       Center              X                  Y                   Z               Mass       
    ------------   -----------------  -----------------  -----------------  -----------------
         H            2.995000000000     1.359000000000     1.085000000000     1.007825032070
         C            3.032000000000     0.281000000000     0.976000000000    12.000000000000
         H            3.478000000000    -0.155000000000     1.856000000000     1.007825032070
         H            3.648000000000     0.056000000000     0.112000000000     1.007825032070
         C            1.642000000000    -0.296000000000     0.817000000000    12.000000000000
         O            1.219000000000    -1.119000000000     1.596000000000    15.994914619560
         N            0.903000000000     0.154000000000    -0.220000000000    14.003074004780
         C            1.380000000000     1.051000000000    -1.276000000000    12.000000000000
         H            2.240000000000     0.620000000000    -1.781000000000     1.007825032070
         H            1.675000000000     2.011000000000    -0.872000000000     1.007825032070
         C            0.185000000000     1.158000000000    -2.225000000000    12.000000000000
         H            0.499000000000     1.340000000000    -3.246000000000     1.007825032070
         H           -0.468000000000     1.965000000000    -1.919000000000     1.007825032070
         C           -0.535000000000    -0.179000000000    -2.044000000000    12.000000000000
         H           -0.026000000000    -0.961000000000    -2.599000000000     1.007825032070
         H           -1.568000000000    -0.145000000000    -2.356000000000     1.007825032070
         C           -0.393000000000    -0.456000000000    -0.547000000000    12.000000000000
         H           -0.352000000000    -1.512000000000    -0.321000000000     1.007825032070
         C           -1.527000000000     0.181000000000     0.272000000000    12.000000000000
         O           -2.310000000000     0.954000000000    -0.218000000000    15.994914619560
         N           -1.579000000000    -0.203000000000     1.557000000000    14.003074004780
         H           -0.819000000000    -0.741000000000     1.913000000000     1.007825032070
         C           -2.533000000000     0.378000000000     2.475000000000    12.000000000000
         H           -3.537000000000     0.282000000000     2.084000000000     1.007825032070
         H           -2.470000000000    -0.151000000000     3.416000000000     1.007825032070
         H           -2.337000000000     1.431000000000     2.649000000000     1.007825032070

  Running in c1 symmetry.

  Rotational constants: A =      0.03861  B =      0.02858  C =      0.01899 [cm^-1]
  Rotational constants: A =   1157.35618  B =    856.81073  C =    569.38639 [MHz]
  Nuclear repulsion =  767.365982934718318

  Charge       = 0
  Multiplicity = 1
  Electrons    = 92
  Nalpha       = 46
  Nbeta        = 46

  ==> Algorithm <==

  SCF Algorithm Type is DF.
  DIIS enabled.
  MOM disabled.
  Fractional occupation disabled.
  Guess Type is SAD.
  Energy threshold   = 1.00e-06
  Density threshold  = 1.00e-06
  Integral threshold = 0.00e+00

  ==> Primary Basis <==

  Basis Set: 6-31G*
    Blend: 6-31G*
    Number of shells: 100
    Number of basis function: 208
    Number of Cartesian functions: 208
    Spherical Harmonics?: false
    Max angular momentum: 2

   => Loading Basis Set <=

    Name: (6-31G* AUX)
    Role: JKFIT
    Keyword: DF_BASIS_SCF
    atoms 1, 3-4, 9-10, 12-13, 15-16, 18, 22, 24-26 entry H          line    51 file /home/hyesu/anaconda3/envs/respyte/share/psi4/basis/cc-pvdz-jkfit.gbs 
    atoms 2, 5, 8, 11, 14, 17, 19, 23               entry C          line   121 file /home/hyesu/anaconda3/envs/respyte/share/psi4/basis/cc-pvdz-jkfit.gbs 
    atoms 6, 20                                     entry O          line   221 file /home/hyesu/anaconda3/envs/respyte/share/psi4/basis/cc-pvdz-jkfit.gbs 
    atoms 7, 21                                     entry N          line   171 file /home/hyesu/anaconda3/envs/respyte/share/psi4/basis/cc-pvdz-jkfit.gbs 

  ==> Pre-Iterations <==

   -------------------------------------------------------
    Irrep   Nso     Nmo     Nalpha   Nbeta   Ndocc  Nsocc
   -------------------------------------------------------
     A        208     208       0       0       0       0
   -------------------------------------------------------
    Total     208     208      46      46      46       0
   -------------------------------------------------------

  ==> Integral Setup <==

  ==> DiskDFJK: Density-Fitted J/K Matrices <==

    J tasked:                  Yes
    K tasked:                  Yes
    wK tasked:                  No
    OpenMP threads:              1
    Integrals threads:           1
    Memory (MB):              8583
    Algorithm:                Core
    Integral Cache:           NONE
    Schwarz Cutoff:          1E-12
    Fitting Condition:       1E-12

   => Auxiliary Basis Set <=

  Basis Set: (6-31G* AUX)
    Blend: CC-PVDZ-JKFIT
    Number of shells: 414
    Number of basis function: 1322
    Number of Cartesian functions: 1322
    Spherical Harmonics?: false
    Max angular momentum: 3

  Minimum eigenvalue in the overlap matrix is 2.1197970228E-03.
  Using Symmetric Orthogonalization.

  SCF Guess: Superposition of Atomic Densities via on-the-fly atomic UHF.

  ==> Iterations <==

                           Total Energy        Delta E     RMS |[F,P]|

   @DF-RHF iter   0:  -575.32367890774401   -5.75324e+02   3.17035e-02 
   @DF-RHF iter   1:  -569.39786116393157    5.92582e+00   3.48322e-03 
   @DF-RHF iter   2:  -569.66955073950112   -2.71690e-01   2.13085e-03 DIIS
   @DF-RHF iter   3:  -569.74759841492971   -7.80477e-02   5.96638e-04 DIIS
   @DF-RHF iter   4:  -569.76065475746702   -1.30563e-02   1.76017e-04 DIIS
   @DF-RHF iter   5:  -569.76188582477960   -1.23107e-03   6.72028e-05 DIIS
   @DF-RHF iter   6:  -569.76213955350045   -2.53729e-04   2.71633e-05 DIIS
   @DF-RHF iter   7:  -569.76218354932314   -4.39958e-05   8.76849e-06 DIIS
   @DF-RHF iter   8:  -569.76218850322368   -4.95390e-06   3.17948e-06 DIIS
   @DF-RHF iter   9:  -569.76218911775561   -6.14532e-07   1.06867e-06 DIIS
   @DF-RHF iter  10:  -569.76218917883773   -6.10821e-08   5.00801e-07 DIIS

  ==> Post-Iterations <==

    Orbital Energies [Eh]
    ---------------------

    Doubly Occupied:                                                      

       1A    -20.531355     2A    -20.515286     3A    -15.595923  
       4A    -15.567012     5A    -11.356596     6A    -11.333707  
       7A    -11.274618     8A    -11.273987     9A    -11.246224  
      10A    -11.237822    11A    -11.229600    12A    -11.227778  
      13A     -1.399838    14A     -1.381179    15A     -1.267830  
      16A     -1.219097    17A     -1.081889    18A     -1.030578  
      19A     -0.998302    20A     -0.948027    21A     -0.879136  
      22A     -0.821823    23A     -0.784499    24A     -0.758220  
      25A     -0.719067    26A     -0.691894    27A     -0.654894  
      28A     -0.643409    29A     -0.635772    30A     -0.616496  
      31A     -0.610211    32A     -0.591124    33A     -0.589053  
      34A     -0.569166    35A     -0.560417    36A     -0.548152  
      37A     -0.540754    38A     -0.520910    39A     -0.515037  
      40A     -0.500047    41A     -0.492182    42A     -0.487300  
      43A     -0.427101    44A     -0.422888    45A     -0.376575  
      46A     -0.369478  

    Virtual:                                                              

      47A      0.185021    48A      0.209830    49A      0.214174  
      50A      0.245935    51A      0.257104    52A      0.267819  
      53A      0.287671    54A      0.293743    55A      0.303948  
      56A      0.313068    57A      0.317684    58A      0.327325  
      59A      0.334154    60A      0.345299    61A      0.350736  
      62A      0.357877    63A      0.371997    64A      0.400575  
      65A      0.403577    66A      0.413515    67A      0.419290  
      68A      0.441303    69A      0.465407    70A      0.503669  
      71A      0.520696    72A      0.542411    73A      0.584607  
      74A      0.633539    75A      0.694962    76A      0.701077  
      77A      0.716530    78A      0.734315    79A      0.747307  
      80A      0.751837    81A      0.767948    82A      0.773779  
      83A      0.798550    84A      0.818592    85A      0.856522  
      86A      0.861709    87A      0.896695    88A      0.910904  
      89A      0.919646    90A      0.929073    91A      0.943670  
      92A      0.962338    93A      0.982457    94A      0.999798  
      95A      1.010236    96A      1.021107    97A      1.049885  
      98A      1.055307    99A      1.081292   100A      1.094666  
     101A      1.102366   102A      1.113769   103A      1.132870  
     104A      1.143225   105A      1.148291   106A      1.153970  
     107A      1.159968   108A      1.179038   109A      1.182477  
     110A      1.185480   111A      1.190655   112A      1.199630  
     113A      1.225774   114A      1.227323   115A      1.238308  
     116A      1.242403   117A      1.262344   118A      1.305148  
     119A      1.319883   120A      1.343676   121A      1.383797  
     122A      1.400926   123A      1.438835   124A      1.459116  
     125A      1.486773   126A      1.511282   127A      1.554760  
     128A      1.599174   129A      1.643301   130A      1.652228  
     131A      1.679839   132A      1.690577   133A      1.728487  
     134A      1.747229   135A      1.763755   136A      1.830907  
     137A      1.845794   138A      1.886497   139A      1.923132  
     140A      1.963926   141A      1.971373   142A      2.011307  
     143A      2.023078   144A      2.072614   145A      2.099488  
     146A      2.105388   147A      2.128876   148A      2.141819  
     149A      2.160911   150A      2.180529   151A      2.198776  
     152A      2.211827   153A      2.219229   154A      2.247413  
     155A      2.258478   156A      2.277161   157A      2.297076  
     158A      2.335497   159A      2.372038   160A      2.377026  
     161A      2.391292   162A      2.416722   163A      2.426775  
     164A      2.472519   165A      2.474354   166A      2.502811  
     167A      2.524838   168A      2.528364   169A      2.570573  
     170A      2.585543   171A      2.606532   172A      2.627327  
     173A      2.662523   174A      2.692768   175A      2.724011  
     176A      2.746038   177A      2.785307   178A      2.809801  
     179A      2.860610   180A      2.879987   181A      2.896754  
     182A      2.923416   183A      2.937305   184A      2.965648  
     185A      2.990233   186A      3.036133   187A      3.063535  
     188A      3.115868   189A      3.124237   190A      3.209127  
     191A      3.307611   192A      3.374049   193A      3.407441  
     194A      3.424462   195A      3.568602   196A      3.608366  
     197A      4.409523   198A      4.438538   199A      4.489498  
     200A      4.612198   201A      4.643923   202A      4.678227  
     203A      4.725984   204A      4.782673   205A      4.898057  
     206A      4.990560   207A      5.031269   208A      5.126039  

    Final Occupation by Irrep:
              A 
    DOCC [    46 ]

  Energy converged.

  @DF-RHF Final Energy:  -569.76218917883773

   => Energetics <=

    Nuclear Repulsion Energy =            767.3659829347183177
    One-Electron Energy =               -2300.1718205633069374
    Two-Electron Energy =                 963.0436484497507763
    Total Energy =                       -569.7621891788377297



Properties will be evaluated at   0.000000,   0.000000,   0.000000 [a0]

Properties computed using the HF density matrix

  Nuclear Dipole Moment: [e a0]
     X:    -5.6616      Y:    31.0747      Z:    20.9608

  Electronic Dipole Moment: [e a0]
     X:     6.8946      Y:   -30.8763      Z:   -21.3818

  Dipole Moment: [e a0]
     X:     1.2330      Y:     0.1983      Z:    -0.4210     Total:     1.3179

  Dipole Moment: [D]
     X:     3.1339      Y:     0.5041      Z:    -1.0700     Total:     3.3497


 Field computed on the grid and written to grid_field.dat

 Electrostatic potential computed on the grid and written to grid_esp.dat

*** tstop() called on sophon at Sun Nov 25 20:47:47 2018
Module time:
	user time   =      86.56 seconds =       1.44 minutes
	system time =       0.52 seconds =       0.01 minutes
	total time  =         87 seconds =       1.45 minutes
Total time:
	user time   =      86.56 seconds =       1.44 minutes
	system time =       0.52 seconds =       0.01 minutes
	total time  =         87 seconds =       1.45 minutes

    Psi4 stopped on: Sunday, 25 November 2018 08:47PM
    Psi4 wall time for execution: 0:01:27.12

*** Psi4 exiting successfully. Buy a developer a beer!
