
    -----------------------------------------------------------------------
          Psi4: An Open-Source Ab Initio Electronic Structure Package
                               Psi4 1.2.1 release

                         Git: Rev {HEAD} 406f4de 


    R. M. Parrish, L. A. Burns, D. G. A. Smith, A. C. Simmonett,
    A. E. DePrince III, E. G. Hohenstein, U. Bozkaya, A. Yu. Sokolov,
    R. Di Remigio, R. M. Richard, J. F. Gonthier, A. M. James,
    H. R. McAlexander, A. Kumar, M. Saitow, X. Wang, B. P. Pritchard,
    P. Verma, H. F. Schaefer III, K. Patkowski, R. A. King, E. F. Valeev,
    F. A. Evangelista, J. M. Turney, T. D. Crawford, and C. D. Sherrill,
    J. Chem. Theory Comput. 13(7) pp 3185--3197 (2017).
    (doi: 10.1021/acs.jctc.7b00174)


                         Additional Contributions by
    P. Kraus, H. Kruse, M. H. Lechner, M. C. Schieber, and R. A. Shaw

    -----------------------------------------------------------------------


    Psi4 started on: Sunday, 25 November 2018 08:58PM

    Process ID: 26863
    Host:       sophon
    PSIDATADIR: /home/hyesu/anaconda3/envs/respyte/share/psi4
    Memory:     500.0 MiB
    Threads:    1
    
  ==> Input File <==

--------------------------------------------------------------------------
memory 12 gb
molecule meoh {
noreorient
nocom
-1 1
H     2.8280    -2.7070    -0.5450
C     3.3340    -1.8180    -0.1810
H     3.8100    -1.3290    -1.0250
H     4.0820    -2.1100     0.5420
C     2.3120    -0.9200     0.4910
O     2.1960    -0.8970     1.6870
N     1.5850    -0.1620    -0.3630
H     1.6110    -0.4600    -1.3130
C     0.3150     0.4330     0.0250
H     0.4010     0.7480     1.0530
C     0.0260     1.6730    -0.8520
H     0.9600     2.2210    -0.8980
H    -0.1800     1.3290    -1.8670
S    -1.3050     2.7800    -0.2570
C    -0.7730    -0.6460    -0.0750
O    -0.5410    -1.7420    -0.5380
N    -1.9810    -0.2920     0.3920
H    -2.1370     0.7010     0.4690
C    -3.1180    -1.1530     0.1910
H    -3.3560    -1.2880    -0.8620
H    -2.9310    -2.1300     0.6180
H    -3.9750    -0.7130     0.6860
}
set {
basis 6-31g*
}
E,wfn = prop('HF' , properties = ['GRID_ESP', 'GRID_FIELD'], return_wfn=True)
--------------------------------------------------------------------------

  Memory set to  11.176 GiB by Python driver.

*** tstart() called on sophon
*** at Sun Nov 25 20:58:23 2018

   => Loading Basis Set <=

    Name: 6-31G*
    Role: ORBITAL
    Keyword: BASIS
    atoms 1, 3-4, 8, 10, 12-13, 18, 20-22 entry H          line    44 file /home/hyesu/anaconda3/envs/respyte/share/psi4/basis/6-31gs.gbs 
    atoms 2, 5, 9, 11, 15, 19             entry C          line   111 file /home/hyesu/anaconda3/envs/respyte/share/psi4/basis/6-31gs.gbs 
    atoms 6, 16                           entry O          line   145 file /home/hyesu/anaconda3/envs/respyte/share/psi4/basis/6-31gs.gbs 
    atoms 7, 17                           entry N          line   128 file /home/hyesu/anaconda3/envs/respyte/share/psi4/basis/6-31gs.gbs 
    atoms 14                              entry S          line   316 file /home/hyesu/anaconda3/envs/respyte/share/psi4/basis/6-31gs.gbs 


         ---------------------------------------------------------
                                   SCF
            by Justin Turney, Rob Parrish, Andy Simmonett
                             and Daniel Smith
                              RHF Reference
                        1 Threads,  11444 MiB Core
         ---------------------------------------------------------

  ==> Geometry <==

    Molecular point group: c1
    Full point group: C1

    Geometry (in Angstrom), charge = -1, multiplicity = 1:

       Center              X                  Y                   Z               Mass       
    ------------   -----------------  -----------------  -----------------  -----------------
         H            2.828000000000    -2.707000000000    -0.545000000000     1.007825032070
         C            3.334000000000    -1.818000000000    -0.181000000000    12.000000000000
         H            3.810000000000    -1.329000000000    -1.025000000000     1.007825032070
         H            4.082000000000    -2.110000000000     0.542000000000     1.007825032070
         C            2.312000000000    -0.920000000000     0.491000000000    12.000000000000
         O            2.196000000000    -0.897000000000     1.687000000000    15.994914619560
         N            1.585000000000    -0.162000000000    -0.363000000000    14.003074004780
         H            1.611000000000    -0.460000000000    -1.313000000000     1.007825032070
         C            0.315000000000     0.433000000000     0.025000000000    12.000000000000
         H            0.401000000000     0.748000000000     1.053000000000     1.007825032070
         C            0.026000000000     1.673000000000    -0.852000000000    12.000000000000
         H            0.960000000000     2.221000000000    -0.898000000000     1.007825032070
         H           -0.180000000000     1.329000000000    -1.867000000000     1.007825032070
         S           -1.305000000000     2.780000000000    -0.257000000000    31.972070999000
         C           -0.773000000000    -0.646000000000    -0.075000000000    12.000000000000
         O           -0.541000000000    -1.742000000000    -0.538000000000    15.994914619560
         N           -1.981000000000    -0.292000000000     0.392000000000    14.003074004780
         H           -2.137000000000     0.701000000000     0.469000000000     1.007825032070
         C           -3.118000000000    -1.153000000000     0.191000000000    12.000000000000
         H           -3.356000000000    -1.288000000000    -0.862000000000     1.007825032070
         H           -2.931000000000    -2.130000000000     0.618000000000     1.007825032070
         H           -3.975000000000    -0.713000000000     0.686000000000     1.007825032070

  Running in c1 symmetry.

  Rotational constants: A =      0.04156  B =      0.02051  C =      0.01551 [cm^-1]
  Rotational constants: A =   1245.83327  B =    614.77634  C =    465.00949 [MHz]
  Nuclear repulsion =  720.419907462182891

  Charge       = -1
  Multiplicity = 1
  Electrons    = 94
  Nalpha       = 47
  Nbeta        = 47

  ==> Algorithm <==

  SCF Algorithm Type is DF.
  DIIS enabled.
  MOM disabled.
  Fractional occupation disabled.
  Guess Type is SAD.
  Energy threshold   = 1.00e-06
  Density threshold  = 1.00e-06
  Integral threshold = 0.00e+00

  ==> Primary Basis <==

  Basis Set: 6-31G*
    Blend: 6-31G*
    Number of shells: 90
    Number of basis function: 191
    Number of Cartesian functions: 191
    Spherical Harmonics?: false
    Max angular momentum: 2

   => Loading Basis Set <=

    Name: (6-31G* AUX)
    Role: JKFIT
    Keyword: DF_BASIS_SCF
    atoms 1, 3-4, 8, 10, 12-13, 18, 20-22 entry H          line    51 file /home/hyesu/anaconda3/envs/respyte/share/psi4/basis/cc-pvdz-jkfit.gbs 
    atoms 2, 5, 9, 11, 15, 19             entry C          line   121 file /home/hyesu/anaconda3/envs/respyte/share/psi4/basis/cc-pvdz-jkfit.gbs 
    atoms 6, 16                           entry O          line   221 file /home/hyesu/anaconda3/envs/respyte/share/psi4/basis/cc-pvdz-jkfit.gbs 
    atoms 7, 17                           entry N          line   171 file /home/hyesu/anaconda3/envs/respyte/share/psi4/basis/cc-pvdz-jkfit.gbs 
    atoms 14                              entry S          line   593 file /home/hyesu/anaconda3/envs/respyte/share/psi4/basis/cc-pvdz-jkfit.gbs 

  ==> Pre-Iterations <==

   -------------------------------------------------------
    Irrep   Nso     Nmo     Nalpha   Nbeta   Ndocc  Nsocc
   -------------------------------------------------------
     A        191     191       0       0       0       0
   -------------------------------------------------------
    Total     191     191      47      47      47       0
   -------------------------------------------------------

  ==> Integral Setup <==

  ==> DiskDFJK: Density-Fitted J/K Matrices <==

    J tasked:                  Yes
    K tasked:                  Yes
    wK tasked:                  No
    OpenMP threads:              1
    Integrals threads:           1
    Memory (MB):              8583
    Algorithm:                Core
    Integral Cache:           NONE
    Schwarz Cutoff:          1E-12
    Fitting Condition:       1E-12

   => Auxiliary Basis Set <=

  Basis Set: (6-31G* AUX)
    Blend: CC-PVDZ-JKFIT
    Number of shells: 375
    Number of basis function: 1215
    Number of Cartesian functions: 1215
    Spherical Harmonics?: false
    Max angular momentum: 3

  Minimum eigenvalue in the overlap matrix is 2.2076195377E-03.
  Using Symmetric Orthogonalization.

  SCF Guess: Superposition of Atomic Densities via on-the-fly atomic UHF.

  ==> Iterations <==

                           Total Energy        Delta E     RMS |[F,P]|

   @DF-RHF iter   0:  -899.84057270190078   -8.99841e+02   3.14318e-02 
   @DF-RHF iter   1:  -889.41475906806170    1.04258e+01   4.09906e-03 
   @DF-RHF iter   2:  -889.68839069142484   -2.73632e-01   2.69093e-03 DIIS
   @DF-RHF iter   3:  -889.79722798166165   -1.08837e-01   6.07771e-04 DIIS
   @DF-RHF iter   4:  -889.80818586709017   -1.09579e-02   1.84447e-04 DIIS
   @DF-RHF iter   5:  -889.80947860313699   -1.29274e-03   6.50773e-05 DIIS
   @DF-RHF iter   6:  -889.80973306564920   -2.54463e-04   2.47883e-05 DIIS
   @DF-RHF iter   7:  -889.80976928985660   -3.62242e-05   1.33147e-05 DIIS
   @DF-RHF iter   8:  -889.80977713123480   -7.84138e-06   3.81281e-06 DIIS
   @DF-RHF iter   9:  -889.80977819459872   -1.06336e-06   1.58338e-06 DIIS
   @DF-RHF iter  10:  -889.80977834123166   -1.46633e-07   6.28113e-07 DIIS

  ==> Post-Iterations <==

    Orbital Energies [Eh]
    ---------------------

    Doubly Occupied:                                                      

       1A    -91.673694     2A    -20.407041     3A    -20.391809  
       4A    -15.454485     5A    -15.434608     6A    -11.231527  
       7A    -11.205543     8A    -11.135795     9A    -11.129398  
      10A    -11.129209    11A    -11.086309    12A     -8.681839  
      13A     -6.365604    14A     -6.362543    15A     -6.362233  
      16A     -1.273553    17A     -1.253735    18A     -1.111049  
      19A     -1.092973    20A     -0.923309    21A     -0.874221  
      22A     -0.824758    23A     -0.751432    24A     -0.669573  
      25A     -0.639581    26A     -0.614295    27A     -0.592004  
      28A     -0.547165    29A     -0.530956    30A     -0.510757  
      31A     -0.505330    32A     -0.491233    33A     -0.470199  
      34A     -0.462306    35A     -0.437632    36A     -0.430377  
      37A     -0.423601    38A     -0.397844    39A     -0.390215  
      40A     -0.355715    41A     -0.306646    42A     -0.294171  
      43A     -0.275622    44A     -0.255763    45A     -0.248786  
      46A     -0.117138    47A     -0.111312  

    Virtual:                                                              

      48A      0.316936    49A      0.331367    50A      0.337545  
      51A      0.372815    52A      0.386076    53A      0.400983  
      54A      0.404257    55A      0.418095    56A      0.430837  
      57A      0.444727    58A      0.453967    59A      0.457009  
      60A      0.468673    61A      0.473745    62A      0.512693  
      63A      0.525940    64A      0.543966    65A      0.581762  
      66A      0.617175    67A      0.632549    68A      0.676803  
      69A      0.701144    70A      0.723906    71A      0.763286  
      72A      0.785539    73A      0.802468    74A      0.841001  
      75A      0.855446    76A      0.864597    77A      0.879184  
      78A      0.887081    79A      0.894559    80A      0.911400  
      81A      0.924680    82A      0.936219    83A      0.957281  
      84A      0.989567    85A      1.018660    86A      1.033827  
      87A      1.067441    88A      1.080654    89A      1.097129  
      90A      1.120587    91A      1.130985    92A      1.135115  
      93A      1.160605    94A      1.197711    95A      1.208522  
      96A      1.228843    97A      1.239676    98A      1.245072  
      99A      1.256335   100A      1.274906   101A      1.284671  
     102A      1.299449   103A      1.304750   104A      1.307000  
     105A      1.318746   106A      1.324766   107A      1.334424  
     108A      1.339945   109A      1.349065   110A      1.360253  
     111A      1.370093   112A      1.399413   113A      1.431017  
     114A      1.460807   115A      1.464933   116A      1.489914  
     117A      1.527749   118A      1.532817   119A      1.558105  
     120A      1.590974   121A      1.621025   122A      1.632004  
     123A      1.680509   124A      1.697168   125A      1.758208  
     126A      1.798084   127A      1.805975   128A      1.839225  
     129A      1.859626   130A      1.892810   131A      1.943342  
     132A      1.988758   133A      2.081165   134A      2.109948  
     135A      2.133676   136A      2.137670   137A      2.174432  
     138A      2.208311   139A      2.234751   140A      2.257133  
     141A      2.280482   142A      2.300657   143A      2.302169  
     144A      2.336309   145A      2.360283   146A      2.375228  
     147A      2.424798   148A      2.439583   149A      2.465695  
     150A      2.486242   151A      2.499356   152A      2.517449  
     153A      2.537446   154A      2.576199   155A      2.612189  
     156A      2.641218   157A      2.675562   158A      2.685717  
     159A      2.756742   160A      2.765539   161A      2.792411  
     162A      2.818619   163A      2.856004   164A      2.891281  
     165A      2.911360   166A      2.928974   167A      2.967374  
     168A      3.036484   169A      3.071152   170A      3.116859  
     171A      3.159689   172A      3.204699   173A      3.239339  
     174A      3.252754   175A      3.406967   176A      3.446804  
     177A      3.497648   178A      3.542799   179A      3.661888  
     180A      3.694657   181A      4.508206   182A      4.565183  
     183A      4.592994   184A      4.617531   185A      4.680811  
     186A      4.770754   187A      4.833795   188A      4.866125  
     189A      4.983603   190A      5.024080   191A      5.186083  

    Final Occupation by Irrep:
              A 
    DOCC [    47 ]

  Energy converged.

  @DF-RHF Final Energy:  -889.80977834123166

   => Energetics <=

    Nuclear Repulsion Energy =            720.4199074621828913
    One-Electron Energy =               -2667.9896584419889223
    Two-Electron Energy =                1057.7599726385742542
    Total Energy =                       -889.8097783412317767



Properties will be evaluated at   0.000000,   0.000000,   0.000000 [a0]

Properties computed using the HF density matrix

  Nuclear Dipole Moment: [e a0]
     X:     6.1926      Y:    -0.2532      Z:    -0.5008

  Electronic Dipole Moment: [e a0]
     X:    -4.9446      Y:    -2.6446      Z:    -0.2529

  Dipole Moment: [e a0]
     X:     1.2480      Y:    -2.8979      Z:    -0.7537     Total:     3.2440

  Dipole Moment: [D]
     X:     3.1722      Y:    -7.3656      Z:    -1.9156     Total:     8.2453


 Field computed on the grid and written to grid_field.dat

 Electrostatic potential computed on the grid and written to grid_esp.dat

*** tstop() called on sophon at Sun Nov 25 20:59:42 2018
Module time:
	user time   =      78.26 seconds =       1.30 minutes
	system time =       0.46 seconds =       0.01 minutes
	total time  =         79 seconds =       1.32 minutes
Total time:
	user time   =      78.26 seconds =       1.30 minutes
	system time =       0.46 seconds =       0.01 minutes
	total time  =         79 seconds =       1.32 minutes

    Psi4 stopped on: Sunday, 25 November 2018 08:59PM
    Psi4 wall time for execution: 0:01:18.76

*** Psi4 exiting successfully. Buy a developer a beer!
