
    -----------------------------------------------------------------------
          Psi4: An Open-Source Ab Initio Electronic Structure Package
                               Psi4 1.2.1 release

                         Git: Rev {HEAD} 406f4de 


    R. M. Parrish, L. A. Burns, D. G. A. Smith, A. C. Simmonett,
    A. E. DePrince III, E. G. Hohenstein, U. Bozkaya, A. Yu. Sokolov,
    R. Di Remigio, R. M. Richard, J. F. Gonthier, A. M. James,
    H. R. McAlexander, A. Kumar, M. Saitow, X. Wang, B. P. Pritchard,
    P. Verma, H. F. Schaefer III, K. Patkowski, R. A. King, E. F. Valeev,
    F. A. Evangelista, J. M. Turney, T. D. Crawford, and C. D. Sherrill,
    J. Chem. Theory Comput. 13(7) pp 3185--3197 (2017).
    (doi: 10.1021/acs.jctc.7b00174)


                         Additional Contributions by
    P. Kraus, H. Kruse, M. H. Lechner, M. C. Schieber, and R. A. Shaw

    -----------------------------------------------------------------------


    Psi4 started on: Sunday, 25 November 2018 08:47PM

    Process ID: 26637
    Host:       sophon
    PSIDATADIR: /home/hyesu/anaconda3/envs/respyte/share/psi4
    Memory:     500.0 MiB
    Threads:    1
    
  ==> Input File <==

--------------------------------------------------------------------------
memory 12 gb
molecule meoh {
noreorient
nocom
0 1
H     2.6440    -1.7330     1.3490
C     2.5110    -0.7590     1.8070
H     3.3900    -0.1620     1.5850
H     2.4290    -0.8680     2.8780
C     1.2620    -0.0600     1.3120
O     0.5020     0.4740     2.0740
N     1.0160    -0.0760    -0.0280
C     1.9660    -0.4800    -1.0660
H     1.7910    -1.5100    -1.3660
H     2.9870    -0.4030    -0.7210
C     1.6650     0.4840    -2.2130
H     1.9550     0.0840    -3.1770
H     2.2020     1.4150    -2.0580
C     0.1610     0.7120    -2.0810
H    -0.3800    -0.1220    -2.5190
H    -0.1890     1.6180    -2.5560
C    -0.0700     0.7470    -0.5600
H     0.0120     1.7550    -0.1770
C    -1.4900     0.3000    -0.2370
O    -2.3930     1.0730    -0.4080
N    -1.6720    -0.9890     0.1160
H    -0.8770    -1.4840     0.4470
C    -2.9770    -1.4590     0.5310
H    -2.9580    -2.5400     0.5820
H    -3.2610    -1.0630     1.5010
H    -3.7170    -1.1540    -0.1930
}
set {
basis 6-31g*
}
E,wfn = prop('HF' , properties = ['GRID_ESP', 'GRID_FIELD'], return_wfn=True)
--------------------------------------------------------------------------

  Memory set to  11.176 GiB by Python driver.

*** tstart() called on sophon
*** at Sun Nov 25 20:47:48 2018

   => Loading Basis Set <=

    Name: 6-31G*
    Role: ORBITAL
    Keyword: BASIS
    atoms 1, 3-4, 9-10, 12-13, 15-16, 18, 22, 24-26 entry H          line    44 file /home/hyesu/anaconda3/envs/respyte/share/psi4/basis/6-31gs.gbs 
    atoms 2, 5, 8, 11, 14, 17, 19, 23               entry C          line   111 file /home/hyesu/anaconda3/envs/respyte/share/psi4/basis/6-31gs.gbs 
    atoms 6, 20                                     entry O          line   145 file /home/hyesu/anaconda3/envs/respyte/share/psi4/basis/6-31gs.gbs 
    atoms 7, 21                                     entry N          line   128 file /home/hyesu/anaconda3/envs/respyte/share/psi4/basis/6-31gs.gbs 


         ---------------------------------------------------------
                                   SCF
            by Justin Turney, Rob Parrish, Andy Simmonett
                             and Daniel Smith
                              RHF Reference
                        1 Threads,  11444 MiB Core
         ---------------------------------------------------------

  ==> Geometry <==

    Molecular point group: c1
    Full point group: C1

    Geometry (in Angstrom), charge = 0, multiplicity = 1:

       Center              X                  Y                   Z               Mass       
    ------------   -----------------  -----------------  -----------------  -----------------
         H            2.644000000000    -1.733000000000     1.349000000000     1.007825032070
         C            2.511000000000    -0.759000000000     1.807000000000    12.000000000000
         H            3.390000000000    -0.162000000000     1.585000000000     1.007825032070
         H            2.429000000000    -0.868000000000     2.878000000000     1.007825032070
         C            1.262000000000    -0.060000000000     1.312000000000    12.000000000000
         O            0.502000000000     0.474000000000     2.074000000000    15.994914619560
         N            1.016000000000    -0.076000000000    -0.028000000000    14.003074004780
         C            1.966000000000    -0.480000000000    -1.066000000000    12.000000000000
         H            1.791000000000    -1.510000000000    -1.366000000000     1.007825032070
         H            2.987000000000    -0.403000000000    -0.721000000000     1.007825032070
         C            1.665000000000     0.484000000000    -2.213000000000    12.000000000000
         H            1.955000000000     0.084000000000    -3.177000000000     1.007825032070
         H            2.202000000000     1.415000000000    -2.058000000000     1.007825032070
         C            0.161000000000     0.712000000000    -2.081000000000    12.000000000000
         H           -0.380000000000    -0.122000000000    -2.519000000000     1.007825032070
         H           -0.189000000000     1.618000000000    -2.556000000000     1.007825032070
         C           -0.070000000000     0.747000000000    -0.560000000000    12.000000000000
         H            0.012000000000     1.755000000000    -0.177000000000     1.007825032070
         C           -1.490000000000     0.300000000000    -0.237000000000    12.000000000000
         O           -2.393000000000     1.073000000000    -0.408000000000    15.994914619560
         N           -1.672000000000    -0.989000000000     0.116000000000    14.003074004780
         H           -0.877000000000    -1.484000000000     0.447000000000     1.007825032070
         C           -2.977000000000    -1.459000000000     0.531000000000    12.000000000000
         H           -2.958000000000    -2.540000000000     0.582000000000     1.007825032070
         H           -3.261000000000    -1.063000000000     1.501000000000     1.007825032070
         H           -3.717000000000    -1.154000000000    -0.193000000000     1.007825032070

  Running in c1 symmetry.

  Rotational constants: A =      0.04003  B =      0.02670  C =      0.01947 [cm^-1]
  Rotational constants: A =   1199.99647  B =    800.48679  C =    583.82732 [MHz]
  Nuclear repulsion =  764.446772861335262

  Charge       = 0
  Multiplicity = 1
  Electrons    = 92
  Nalpha       = 46
  Nbeta        = 46

  ==> Algorithm <==

  SCF Algorithm Type is DF.
  DIIS enabled.
  MOM disabled.
  Fractional occupation disabled.
  Guess Type is SAD.
  Energy threshold   = 1.00e-06
  Density threshold  = 1.00e-06
  Integral threshold = 0.00e+00

  ==> Primary Basis <==

  Basis Set: 6-31G*
    Blend: 6-31G*
    Number of shells: 100
    Number of basis function: 208
    Number of Cartesian functions: 208
    Spherical Harmonics?: false
    Max angular momentum: 2

   => Loading Basis Set <=

    Name: (6-31G* AUX)
    Role: JKFIT
    Keyword: DF_BASIS_SCF
    atoms 1, 3-4, 9-10, 12-13, 15-16, 18, 22, 24-26 entry H          line    51 file /home/hyesu/anaconda3/envs/respyte/share/psi4/basis/cc-pvdz-jkfit.gbs 
    atoms 2, 5, 8, 11, 14, 17, 19, 23               entry C          line   121 file /home/hyesu/anaconda3/envs/respyte/share/psi4/basis/cc-pvdz-jkfit.gbs 
    atoms 6, 20                                     entry O          line   221 file /home/hyesu/anaconda3/envs/respyte/share/psi4/basis/cc-pvdz-jkfit.gbs 
    atoms 7, 21                                     entry N          line   171 file /home/hyesu/anaconda3/envs/respyte/share/psi4/basis/cc-pvdz-jkfit.gbs 

  ==> Pre-Iterations <==

   -------------------------------------------------------
    Irrep   Nso     Nmo     Nalpha   Nbeta   Ndocc  Nsocc
   -------------------------------------------------------
     A        208     208       0       0       0       0
   -------------------------------------------------------
    Total     208     208      46      46      46       0
   -------------------------------------------------------

  ==> Integral Setup <==

  ==> DiskDFJK: Density-Fitted J/K Matrices <==

    J tasked:                  Yes
    K tasked:                  Yes
    wK tasked:                  No
    OpenMP threads:              1
    Integrals threads:           1
    Memory (MB):              8583
    Algorithm:                Core
    Integral Cache:           NONE
    Schwarz Cutoff:          1E-12
    Fitting Condition:       1E-12

   => Auxiliary Basis Set <=

  Basis Set: (6-31G* AUX)
    Blend: CC-PVDZ-JKFIT
    Number of shells: 414
    Number of basis function: 1322
    Number of Cartesian functions: 1322
    Spherical Harmonics?: false
    Max angular momentum: 3

  Minimum eigenvalue in the overlap matrix is 1.6587748568E-03.
  Using Symmetric Orthogonalization.

  SCF Guess: Superposition of Atomic Densities via on-the-fly atomic UHF.

  ==> Iterations <==

                           Total Energy        Delta E     RMS |[F,P]|

   @DF-RHF iter   0:  -575.55955903366578   -5.75560e+02   3.20857e-02 
   @DF-RHF iter   1:  -569.36817604668033    6.19138e+00   3.76504e-03 
   @DF-RHF iter   2:  -569.62641863666465   -2.58243e-01   2.63388e-03 DIIS
   @DF-RHF iter   3:  -569.74229478383859   -1.15876e-01   5.58166e-04 DIIS
   @DF-RHF iter   4:  -569.75373240964154   -1.14376e-02   1.71619e-04 DIIS
   @DF-RHF iter   5:  -569.75496032099738   -1.22791e-03   6.66388e-05 DIIS
   @DF-RHF iter   6:  -569.75521330283118   -2.52982e-04   2.70612e-05 DIIS
   @DF-RHF iter   7:  -569.75525542369280   -4.21209e-05   1.18609e-05 DIIS
   @DF-RHF iter   8:  -569.75526295489499   -7.53120e-06   3.62103e-06 DIIS
   @DF-RHF iter   9:  -569.75526384326770   -8.88373e-07   1.47109e-06 DIIS
   @DF-RHF iter  10:  -569.75526397553892   -1.32271e-07   5.46260e-07 DIIS

  ==> Post-Iterations <==

    Orbital Energies [Eh]
    ---------------------

    Doubly Occupied:                                                      

       1A    -20.529850     2A    -20.511009     3A    -15.594769  
       4A    -15.573582     5A    -11.354240     6A    -11.333780  
       7A    -11.280565     8A    -11.272160     9A    -11.247566  
      10A    -11.241971    11A    -11.240233    12A    -11.237916  
      13A     -1.400876    14A     -1.380066    15A     -1.270042  
      16A     -1.220708    17A     -1.085786    18A     -1.034730  
      19A     -1.001715    20A     -0.945888    21A     -0.884072  
      22A     -0.828092    23A     -0.790286    24A     -0.766813  
      25A     -0.710798    26A     -0.691032    27A     -0.669656  
      28A     -0.635999    29A     -0.628479    30A     -0.620114  
      31A     -0.613814    32A     -0.597451    33A     -0.586706  
      34A     -0.571521    35A     -0.561069    36A     -0.558921  
      37A     -0.542899    38A     -0.536308    39A     -0.513865  
      40A     -0.506421    41A     -0.495655    42A     -0.482312  
      43A     -0.425476    44A     -0.415183    45A     -0.383832  
      46A     -0.372339  

    Virtual:                                                              

      47A      0.189015    48A      0.200870    49A      0.214865  
      50A      0.235910    51A      0.247154    52A      0.260838  
      53A      0.286778    54A      0.289195    55A      0.301162  
      56A      0.309715    57A      0.314498    58A      0.317242  
      59A      0.326441    60A      0.330479    61A      0.343034  
      62A      0.348695    63A      0.353485    64A      0.367205  
      65A      0.395914    66A      0.399975    67A      0.414276  
      68A      0.439133    69A      0.478410    70A      0.494591  
      71A      0.523116    72A      0.534838    73A      0.581732  
      74A      0.642389    75A      0.700439    76A      0.707668  
      77A      0.732190    78A      0.740103    79A      0.745271  
      80A      0.762354    81A      0.769954    82A      0.779438  
      83A      0.798701    84A      0.819322    85A      0.856736  
      86A      0.870907    87A      0.896886    88A      0.900318  
      89A      0.918404    90A      0.936056    91A      0.940659  
      92A      0.959746    93A      0.971811    94A      0.998571  
      95A      1.004590    96A      1.021585    97A      1.038618  
      98A      1.045604    99A      1.089687   100A      1.099254  
     101A      1.106067   102A      1.115836   103A      1.133379  
     104A      1.137793   105A      1.141179   106A      1.148828  
     107A      1.152486   108A      1.162635   109A      1.167446  
     110A      1.178303   111A      1.191489   112A      1.203827  
     113A      1.217868   114A      1.226411   115A      1.234892  
     116A      1.250859   117A      1.272910   118A      1.299011  
     119A      1.305014   120A      1.324542   121A      1.370529  
     122A      1.377805   123A      1.397278   124A      1.411635  
     125A      1.468949   126A      1.512576   127A      1.534681  
     128A      1.560053   129A      1.598710   130A      1.631199  
     131A      1.666910   132A      1.684863   133A      1.702622  
     134A      1.738374   135A      1.758755   136A      1.782638  
     137A      1.873789   138A      1.877487   139A      1.933237  
     140A      1.941097   141A      1.969458   142A      2.027719  
     143A      2.059267   144A      2.068164   145A      2.101680  
     146A      2.111432   147A      2.131281   148A      2.146924  
     149A      2.153741   150A      2.178329   151A      2.203520  
     152A      2.209474   153A      2.218772   154A      2.233007  
     155A      2.261842   156A      2.282151   157A      2.324337  
     158A      2.338014   159A      2.347826   160A      2.360048  
     161A      2.374024   162A      2.404423   163A      2.414620  
     164A      2.432362   165A      2.461503   166A      2.495593  
     167A      2.534257   168A      2.554245   169A      2.570466  
     170A      2.582815   171A      2.602439   172A      2.631283  
     173A      2.646215   174A      2.682901   175A      2.731196  
     176A      2.738398   177A      2.789288   178A      2.817030  
     179A      2.830139   180A      2.859755   181A      2.905457  
     182A      2.925807   183A      2.932122   184A      2.969401  
     185A      3.012269   186A      3.040361   187A      3.060117  
     188A      3.082932   189A      3.124091   190A      3.195731  
     191A      3.323952   192A      3.357814   193A      3.404660  
     194A      3.417494   195A      3.559671   196A      3.615901  
     197A      4.400397   198A      4.465770   199A      4.492921  
     200A      4.595857   201A      4.629455   202A      4.661580  
     203A      4.677015   204A      4.744590   205A      4.915993  
     206A      4.964413   207A      4.976902   208A      5.192738  

    Final Occupation by Irrep:
              A 
    DOCC [    46 ]

  Energy converged.

  @DF-RHF Final Energy:  -569.75526397553892

   => Energetics <=

    Nuclear Repulsion Energy =            764.4467728613352620
    One-Electron Energy =               -2294.1106712210876140
    Two-Electron Energy =                 959.9086343842133147
    Total Energy =                       -569.7552639755389237



Properties will be evaluated at   0.000000,   0.000000,   0.000000 [a0]

Properties computed using the HF density matrix

  Nuclear Dipole Moment: [e a0]
     X:     8.4584      Y:    -8.1939      Z:   -10.4370

  Electronic Dipole Moment: [e a0]
     X:    -6.5590      Y:     6.7275      Z:     9.5868

  Dipole Moment: [e a0]
     X:     1.8994      Y:    -1.4663      Z:    -0.8502     Total:     2.5457

  Dipole Moment: [D]
     X:     4.8278      Y:    -3.7270      Z:    -2.1610     Total:     6.4706


 Field computed on the grid and written to grid_field.dat

 Electrostatic potential computed on the grid and written to grid_esp.dat

*** tstop() called on sophon at Sun Nov 25 20:49:16 2018
Module time:
	user time   =      87.46 seconds =       1.46 minutes
	system time =       0.52 seconds =       0.01 minutes
	total time  =         88 seconds =       1.47 minutes
Total time:
	user time   =      87.46 seconds =       1.46 minutes
	system time =       0.52 seconds =       0.01 minutes
	total time  =         88 seconds =       1.47 minutes

    Psi4 stopped on: Sunday, 25 November 2018 08:49PM
    Psi4 wall time for execution: 0:01:28.01

*** Psi4 exiting successfully. Buy a developer a beer!
