
    -----------------------------------------------------------------------
          Psi4: An Open-Source Ab Initio Electronic Structure Package
                               Psi4 1.2.1 release

                         Git: Rev {HEAD} 406f4de 


    R. M. Parrish, L. A. Burns, D. G. A. Smith, A. C. Simmonett,
    A. E. DePrince III, E. G. Hohenstein, U. Bozkaya, A. Yu. Sokolov,
    R. Di Remigio, R. M. Richard, J. F. Gonthier, A. M. James,
    H. R. McAlexander, A. Kumar, M. Saitow, X. Wang, B. P. Pritchard,
    P. Verma, H. F. Schaefer III, K. Patkowski, R. A. King, E. F. Valeev,
    F. A. Evangelista, J. M. Turney, T. D. Crawford, and C. D. Sherrill,
    J. Chem. Theory Comput. 13(7) pp 3185--3197 (2017).
    (doi: 10.1021/acs.jctc.7b00174)


                         Additional Contributions by
    P. Kraus, H. Kruse, M. H. Lechner, M. C. Schieber, and R. A. Shaw

    -----------------------------------------------------------------------


    Psi4 started on: Sunday, 25 November 2018 08:55PM

    Process ID: 26776
    Host:       sophon
    PSIDATADIR: /home/hyesu/anaconda3/envs/respyte/share/psi4
    Memory:     500.0 MiB
    Threads:    1
    
  ==> Input File <==

--------------------------------------------------------------------------
memory 12 gb
molecule meoh {
noreorient
nocom
0 1
H     3.7410    -1.0320     0.7090
C     3.2550    -0.5760    -0.1410
H     3.0670    -1.3260    -0.9010
H     3.9230     0.1710    -0.5590
C     1.9860     0.1040     0.3250
O     1.8350     0.4720     1.4560
N     1.0360     0.2750    -0.6330
H     1.2480    -0.0100    -1.5620
C    -0.1450     1.0850    -0.4350
H    -0.2570     1.7910    -1.2460
H    -0.0190     1.6460     0.4800
C    -1.4660     0.3330    -0.3280
O    -2.4940     0.9080    -0.5620
N    -1.4040    -0.9570     0.0510
H    -0.5300    -1.3080     0.3670
C    -2.6030    -1.7130     0.3430
H    -3.3350    -1.5390    -0.4310
H    -3.0380    -1.4320     1.2960
H    -2.3560    -2.7660     0.3660
}
set {
basis 6-31g*
}
E,wfn = prop('HF' , properties = ['GRID_ESP', 'GRID_FIELD'], return_wfn=True)
--------------------------------------------------------------------------

  Memory set to  11.176 GiB by Python driver.

*** tstart() called on sophon
*** at Sun Nov 25 20:55:00 2018

   => Loading Basis Set <=

    Name: 6-31G*
    Role: ORBITAL
    Keyword: BASIS
    atoms 1, 3-4, 8, 10-11, 15, 17-19 entry H          line    44 file /home/hyesu/anaconda3/envs/respyte/share/psi4/basis/6-31gs.gbs 
    atoms 2, 5, 9, 12, 16             entry C          line   111 file /home/hyesu/anaconda3/envs/respyte/share/psi4/basis/6-31gs.gbs 
    atoms 6, 13                       entry O          line   145 file /home/hyesu/anaconda3/envs/respyte/share/psi4/basis/6-31gs.gbs 
    atoms 7, 14                       entry N          line   128 file /home/hyesu/anaconda3/envs/respyte/share/psi4/basis/6-31gs.gbs 


         ---------------------------------------------------------
                                   SCF
            by Justin Turney, Rob Parrish, Andy Simmonett
                             and Daniel Smith
                              RHF Reference
                        1 Threads,  11444 MiB Core
         ---------------------------------------------------------

  ==> Geometry <==

    Molecular point group: c1
    Full point group: C1

    Geometry (in Angstrom), charge = 0, multiplicity = 1:

       Center              X                  Y                   Z               Mass       
    ------------   -----------------  -----------------  -----------------  -----------------
         H            3.741000000000    -1.032000000000     0.709000000000     1.007825032070
         C            3.255000000000    -0.576000000000    -0.141000000000    12.000000000000
         H            3.067000000000    -1.326000000000    -0.901000000000     1.007825032070
         H            3.923000000000     0.171000000000    -0.559000000000     1.007825032070
         C            1.986000000000     0.104000000000     0.325000000000    12.000000000000
         O            1.835000000000     0.472000000000     1.456000000000    15.994914619560
         N            1.036000000000     0.275000000000    -0.633000000000    14.003074004780
         H            1.248000000000    -0.010000000000    -1.562000000000     1.007825032070
         C           -0.145000000000     1.085000000000    -0.435000000000    12.000000000000
         H           -0.257000000000     1.791000000000    -1.246000000000     1.007825032070
         H           -0.019000000000     1.646000000000     0.480000000000     1.007825032070
         C           -1.466000000000     0.333000000000    -0.328000000000    12.000000000000
         O           -2.494000000000     0.908000000000    -0.562000000000    15.994914619560
         N           -1.404000000000    -0.957000000000     0.051000000000    14.003074004780
         H           -0.530000000000    -1.308000000000     0.367000000000     1.007825032070
         C           -2.603000000000    -1.713000000000     0.343000000000    12.000000000000
         H           -3.335000000000    -1.539000000000    -0.431000000000     1.007825032070
         H           -3.038000000000    -1.432000000000     1.296000000000     1.007825032070
         H           -2.356000000000    -2.766000000000     0.366000000000     1.007825032070

  Running in c1 symmetry.

  Rotational constants: A =      0.10502  B =      0.02811  C =      0.02538 [cm^-1]
  Rotational constants: A =   3148.29226  B =    842.65414  C =    760.97665 [MHz]
  Nuclear repulsion =  459.774587806436841

  Charge       = 0
  Multiplicity = 1
  Electrons    = 70
  Nalpha       = 35
  Nbeta        = 35

  ==> Algorithm <==

  SCF Algorithm Type is DF.
  DIIS enabled.
  MOM disabled.
  Fractional occupation disabled.
  Guess Type is SAD.
  Energy threshold   = 1.00e-06
  Density threshold  = 1.00e-06
  Integral threshold = 0.00e+00

  ==> Primary Basis <==

  Basis Set: 6-31G*
    Blend: 6-31G*
    Number of shells: 74
    Number of basis function: 155
    Number of Cartesian functions: 155
    Spherical Harmonics?: false
    Max angular momentum: 2

   => Loading Basis Set <=

    Name: (6-31G* AUX)
    Role: JKFIT
    Keyword: DF_BASIS_SCF
    atoms 1, 3-4, 8, 10-11, 15, 17-19 entry H          line    51 file /home/hyesu/anaconda3/envs/respyte/share/psi4/basis/cc-pvdz-jkfit.gbs 
    atoms 2, 5, 9, 12, 16             entry C          line   121 file /home/hyesu/anaconda3/envs/respyte/share/psi4/basis/cc-pvdz-jkfit.gbs 
    atoms 6, 13                       entry O          line   221 file /home/hyesu/anaconda3/envs/respyte/share/psi4/basis/cc-pvdz-jkfit.gbs 
    atoms 7, 14                       entry N          line   171 file /home/hyesu/anaconda3/envs/respyte/share/psi4/basis/cc-pvdz-jkfit.gbs 

  ==> Pre-Iterations <==

   -------------------------------------------------------
    Irrep   Nso     Nmo     Nalpha   Nbeta   Ndocc  Nsocc
   -------------------------------------------------------
     A        155     155       0       0       0       0
   -------------------------------------------------------
    Total     155     155      35      35      35       0
   -------------------------------------------------------

  ==> Integral Setup <==

  ==> DiskDFJK: Density-Fitted J/K Matrices <==

    J tasked:                  Yes
    K tasked:                  Yes
    wK tasked:                  No
    OpenMP threads:              1
    Integrals threads:           1
    Memory (MB):              8583
    Algorithm:                Core
    Integral Cache:           NONE
    Schwarz Cutoff:          1E-12
    Fitting Condition:       1E-12

   => Auxiliary Basis Set <=

  Basis Set: (6-31G* AUX)
    Blend: CC-PVDZ-JKFIT
    Number of shells: 306
    Number of basis function: 979
    Number of Cartesian functions: 979
    Spherical Harmonics?: false
    Max angular momentum: 3

  Minimum eigenvalue in the overlap matrix is 2.6103673350E-03.
  Using Symmetric Orthogonalization.

  SCF Guess: Superposition of Atomic Densities via on-the-fly atomic UHF.

  ==> Iterations <==

                           Total Energy        Delta E     RMS |[F,P]|

   @DF-RHF iter   0:  -457.69972792061350   -4.57700e+02   3.75904e-02 
   @DF-RHF iter   1:  -453.44922376601482    4.25050e+00   5.28737e-03 
   @DF-RHF iter   2:  -453.66034608362543   -2.11122e-01   4.02986e-03 DIIS
   @DF-RHF iter   3:  -453.80914574065247   -1.48800e-01   6.68372e-04 DIIS
   @DF-RHF iter   4:  -453.81877340868346   -9.62767e-03   1.87171e-04 DIIS
   @DF-RHF iter   5:  -453.81977786342020   -1.00445e-03   8.87649e-05 DIIS
   @DF-RHF iter   6:  -453.81998378286664   -2.05919e-04   3.16907e-05 DIIS
   @DF-RHF iter   7:  -453.82001280681459   -2.90239e-05   1.43579e-05 DIIS
   @DF-RHF iter   8:  -453.82001804798625   -5.24117e-06   3.65886e-06 DIIS
   @DF-RHF iter   9:  -453.82001854113230   -4.93146e-07   1.47991e-06 DIIS
   @DF-RHF iter  10:  -453.82001860043198   -5.92997e-08   4.51562e-07 DIIS

  ==> Post-Iterations <==

    Orbital Energies [Eh]
    ---------------------

    Doubly Occupied:                                                      

       1A    -20.536160     2A    -20.518852     3A    -15.602058  
       4A    -15.583207     5A    -11.362610     6A    -11.342667  
       7A    -11.274933     8A    -11.255809     9A    -11.244888  
      10A     -1.405927    11A     -1.388363    12A     -1.253743  
      13A     -1.226685    14A     -1.040393    15A     -0.984202  
      16A     -0.934195    17A     -0.808997    18A     -0.788902  
      19A     -0.730344    20A     -0.695218    21A     -0.674735  
      22A     -0.636349    23A     -0.626428    24A     -0.624959  
      25A     -0.598017    26A     -0.582673    27A     -0.576971  
      28A     -0.569197    29A     -0.551361    30A     -0.530402  
      31A     -0.508410    32A     -0.441725    33A     -0.431242  
      34A     -0.396546    35A     -0.383378  

    Virtual:                                                              

      36A      0.189996    37A      0.200109    38A      0.209069  
      39A      0.243316    40A      0.264327    41A      0.279566  
      42A      0.285731    43A      0.293999    44A      0.319371  
      45A      0.323844    46A      0.337014    47A      0.348650  
      48A      0.369194    49A      0.382065    50A      0.420486  
      51A      0.454324    52A      0.484319    53A      0.522296  
      54A      0.578099    55A      0.631505    56A      0.715805  
      57A      0.732985    58A      0.743210    59A      0.749119  
      60A      0.754450    61A      0.771756    62A      0.808045  
      63A      0.813943    64A      0.826383    65A      0.862152  
      66A      0.900668    67A      0.935873    68A      0.937637  
      69A      0.969548    70A      1.003766    71A      1.010198  
      72A      1.027206    73A      1.052980    74A      1.070984  
      75A      1.098396    76A      1.099539    77A      1.122190  
      78A      1.131590    79A      1.143630    80A      1.151289  
      81A      1.182425    82A      1.188619    83A      1.199174  
      84A      1.204548    85A      1.220251    86A      1.225189  
      87A      1.261013    88A      1.293162    89A      1.339194  
      90A      1.351212    91A      1.360456    92A      1.393715  
      93A      1.457757    94A      1.484314    95A      1.538877  
      96A      1.560736    97A      1.602837    98A      1.638188  
      99A      1.668674   100A      1.710172   101A      1.725156  
     102A      1.800136   103A      1.803302   104A      1.843251  
     105A      1.926027   106A      1.952442   107A      2.035756  
     108A      2.064211   109A      2.095979   110A      2.109782  
     111A      2.123584   112A      2.132044   113A      2.178009  
     114A      2.188219   115A      2.204692   116A      2.238756  
     117A      2.286840   118A      2.302257   119A      2.351780  
     120A      2.359124   121A      2.401908   122A      2.413343  
     123A      2.463738   124A      2.514089   125A      2.538656  
     126A      2.560001   127A      2.592890   128A      2.636680  
     129A      2.667064   130A      2.705398   131A      2.737479  
     132A      2.763368   133A      2.795532   134A      2.810898  
     135A      2.869415   136A      2.942140   137A      3.009465  
     138A      3.022086   139A      3.056126   140A      3.089679  
     141A      3.225783   142A      3.331287   143A      3.365678  
     144A      3.414658   145A      3.526185   146A      3.567899  
     147A      4.357580   148A      4.446496   149A      4.496076  
     150A      4.501059   151A      4.618350   152A      4.673913  
     153A      4.714931   154A      4.909406   155A      5.010514  

    Final Occupation by Irrep:
              A 
    DOCC [    35 ]

  Energy converged.

  @DF-RHF Final Energy:  -453.82001860043198

   => Energetics <=

    Nuclear Repulsion Energy =            459.7745878064368412
    One-Electron Energy =               -1530.9679651982887663
    Two-Electron Energy =                 617.3733587914199461
    Total Energy =                       -453.8200186004320358



Properties will be evaluated at   0.000000,   0.000000,   0.000000 [a0]

Properties computed using the HF density matrix

  Nuclear Dipole Moment: [e a0]
     X:     1.4324      Y:    -7.8254      Z:     0.3420

  Electronic Dipole Moment: [e a0]
     X:    -0.1957      Y:     6.6158      Z:    -1.3143

  Dipole Moment: [e a0]
     X:     1.2367      Y:    -1.2095      Z:    -0.9722     Total:     1.9843

  Dipole Moment: [D]
     X:     3.1433      Y:    -3.0743      Z:    -2.4711     Total:     5.0436


 Field computed on the grid and written to grid_field.dat

 Electrostatic potential computed on the grid and written to grid_esp.dat

*** tstop() called on sophon at Sun Nov 25 20:55:41 2018
Module time:
	user time   =      40.31 seconds =       0.67 minutes
	system time =       0.27 seconds =       0.00 minutes
	total time  =         41 seconds =       0.68 minutes
Total time:
	user time   =      40.31 seconds =       0.67 minutes
	system time =       0.27 seconds =       0.00 minutes
	total time  =         41 seconds =       0.68 minutes

    Psi4 stopped on: Sunday, 25 November 2018 08:55PM
    Psi4 wall time for execution: 0:00:40.60

*** Psi4 exiting successfully. Buy a developer a beer!
