
    -----------------------------------------------------------------------
          Psi4: An Open-Source Ab Initio Electronic Structure Package
                               Psi4 1.2.1 release

                         Git: Rev {HEAD} 406f4de 


    R. M. Parrish, L. A. Burns, D. G. A. Smith, A. C. Simmonett,
    A. E. DePrince III, E. G. Hohenstein, U. Bozkaya, A. Yu. Sokolov,
    R. Di Remigio, R. M. Richard, J. F. Gonthier, A. M. James,
    H. R. McAlexander, A. Kumar, M. Saitow, X. Wang, B. P. Pritchard,
    P. Verma, H. F. Schaefer III, K. Patkowski, R. A. King, E. F. Valeev,
    F. A. Evangelista, J. M. Turney, T. D. Crawford, and C. D. Sherrill,
    J. Chem. Theory Comput. 13(7) pp 3185--3197 (2017).
    (doi: 10.1021/acs.jctc.7b00174)


                         Additional Contributions by
    P. Kraus, H. Kruse, M. H. Lechner, M. C. Schieber, and R. A. Shaw

    -----------------------------------------------------------------------


    Psi4 started on: Sunday, 25 November 2018 09:02PM

    Process ID: 26951
    Host:       sophon
    PSIDATADIR: /home/hyesu/anaconda3/envs/respyte/share/psi4
    Memory:     500.0 MiB
    Threads:    1
    
  ==> Input File <==

--------------------------------------------------------------------------
memory 12 gb
molecule meoh {
noreorient
nocom
-1 1
H     3.5340    -1.8500    -0.0660
C     3.1720    -0.8300    -0.1100
H     3.2930    -0.4380    -1.1120
H     3.7660    -0.2290     0.5700
C     1.7330    -0.7960     0.3660
O     1.3990    -1.4540     1.3300
N     0.9110    -0.0140    -0.3460
H     1.3610     0.7000    -0.8910
C    -0.3670     0.4820     0.1650
H    -0.2700     0.6420     1.2330
C    -0.6920     1.8180    -0.5230
H    -0.9900     1.6030    -1.5420
H    -1.5690     2.2200    -0.0270
S     0.6910     3.0170    -0.4890
C    -1.4680    -0.5690    -0.0620
O    -2.2990    -0.4930    -0.9290
N    -1.4570    -1.5940     0.8280
H    -0.6050    -1.7250     1.3330
C    -2.3200    -2.7300     0.6340
H    -3.3500    -2.4080     0.5570
H    -2.0780    -3.2890    -0.2670
H    -2.2240    -3.3910     1.4880
}
set {
basis 6-31g*
}
E,wfn = prop('HF' , properties = ['GRID_ESP', 'GRID_FIELD'], return_wfn=True)
--------------------------------------------------------------------------

  Memory set to  11.176 GiB by Python driver.

*** tstart() called on sophon
*** at Sun Nov 25 21:02:21 2018

   => Loading Basis Set <=

    Name: 6-31G*
    Role: ORBITAL
    Keyword: BASIS
    atoms 1, 3-4, 8, 10, 12-13, 18, 20-22 entry H          line    44 file /home/hyesu/anaconda3/envs/respyte/share/psi4/basis/6-31gs.gbs 
    atoms 2, 5, 9, 11, 15, 19             entry C          line   111 file /home/hyesu/anaconda3/envs/respyte/share/psi4/basis/6-31gs.gbs 
    atoms 6, 16                           entry O          line   145 file /home/hyesu/anaconda3/envs/respyte/share/psi4/basis/6-31gs.gbs 
    atoms 7, 17                           entry N          line   128 file /home/hyesu/anaconda3/envs/respyte/share/psi4/basis/6-31gs.gbs 
    atoms 14                              entry S          line   316 file /home/hyesu/anaconda3/envs/respyte/share/psi4/basis/6-31gs.gbs 


         ---------------------------------------------------------
                                   SCF
            by Justin Turney, Rob Parrish, Andy Simmonett
                             and Daniel Smith
                              RHF Reference
                        1 Threads,  11444 MiB Core
         ---------------------------------------------------------

  ==> Geometry <==

    Molecular point group: c1
    Full point group: C1

    Geometry (in Angstrom), charge = -1, multiplicity = 1:

       Center              X                  Y                   Z               Mass       
    ------------   -----------------  -----------------  -----------------  -----------------
         H            3.534000000000    -1.850000000000    -0.066000000000     1.007825032070
         C            3.172000000000    -0.830000000000    -0.110000000000    12.000000000000
         H            3.293000000000    -0.438000000000    -1.112000000000     1.007825032070
         H            3.766000000000    -0.229000000000     0.570000000000     1.007825032070
         C            1.733000000000    -0.796000000000     0.366000000000    12.000000000000
         O            1.399000000000    -1.454000000000     1.330000000000    15.994914619560
         N            0.911000000000    -0.014000000000    -0.346000000000    14.003074004780
         H            1.361000000000     0.700000000000    -0.891000000000     1.007825032070
         C           -0.367000000000     0.482000000000     0.165000000000    12.000000000000
         H           -0.270000000000     0.642000000000     1.233000000000     1.007825032070
         C           -0.692000000000     1.818000000000    -0.523000000000    12.000000000000
         H           -0.990000000000     1.603000000000    -1.542000000000     1.007825032070
         H           -1.569000000000     2.220000000000    -0.027000000000     1.007825032070
         S            0.691000000000     3.017000000000    -0.489000000000    31.972070999000
         C           -1.468000000000    -0.569000000000    -0.062000000000    12.000000000000
         O           -2.299000000000    -0.493000000000    -0.929000000000    15.994914619560
         N           -1.457000000000    -1.594000000000     0.828000000000    14.003074004780
         H           -0.605000000000    -1.725000000000     1.333000000000     1.007825032070
         C           -2.320000000000    -2.730000000000     0.634000000000    12.000000000000
         H           -3.350000000000    -2.408000000000     0.557000000000     1.007825032070
         H           -2.078000000000    -3.289000000000    -0.267000000000     1.007825032070
         H           -2.224000000000    -3.391000000000     1.488000000000     1.007825032070

  Running in c1 symmetry.

  Rotational constants: A =      0.03589  B =      0.02386  C =      0.01548 [cm^-1]
  Rotational constants: A =   1076.06482  B =    715.41508  C =    463.94610 [MHz]
  Nuclear repulsion =  722.674343552539767

  Charge       = -1
  Multiplicity = 1
  Electrons    = 94
  Nalpha       = 47
  Nbeta        = 47

  ==> Algorithm <==

  SCF Algorithm Type is DF.
  DIIS enabled.
  MOM disabled.
  Fractional occupation disabled.
  Guess Type is SAD.
  Energy threshold   = 1.00e-06
  Density threshold  = 1.00e-06
  Integral threshold = 0.00e+00

  ==> Primary Basis <==

  Basis Set: 6-31G*
    Blend: 6-31G*
    Number of shells: 90
    Number of basis function: 191
    Number of Cartesian functions: 191
    Spherical Harmonics?: false
    Max angular momentum: 2

   => Loading Basis Set <=

    Name: (6-31G* AUX)
    Role: JKFIT
    Keyword: DF_BASIS_SCF
    atoms 1, 3-4, 8, 10, 12-13, 18, 20-22 entry H          line    51 file /home/hyesu/anaconda3/envs/respyte/share/psi4/basis/cc-pvdz-jkfit.gbs 
    atoms 2, 5, 9, 11, 15, 19             entry C          line   121 file /home/hyesu/anaconda3/envs/respyte/share/psi4/basis/cc-pvdz-jkfit.gbs 
    atoms 6, 16                           entry O          line   221 file /home/hyesu/anaconda3/envs/respyte/share/psi4/basis/cc-pvdz-jkfit.gbs 
    atoms 7, 17                           entry N          line   171 file /home/hyesu/anaconda3/envs/respyte/share/psi4/basis/cc-pvdz-jkfit.gbs 
    atoms 14                              entry S          line   593 file /home/hyesu/anaconda3/envs/respyte/share/psi4/basis/cc-pvdz-jkfit.gbs 

  ==> Pre-Iterations <==

   -------------------------------------------------------
    Irrep   Nso     Nmo     Nalpha   Nbeta   Ndocc  Nsocc
   -------------------------------------------------------
     A        191     191       0       0       0       0
   -------------------------------------------------------
    Total     191     191      47      47      47       0
   -------------------------------------------------------

  ==> Integral Setup <==

  ==> DiskDFJK: Density-Fitted J/K Matrices <==

    J tasked:                  Yes
    K tasked:                  Yes
    wK tasked:                  No
    OpenMP threads:              1
    Integrals threads:           1
    Memory (MB):              8583
    Algorithm:                Core
    Integral Cache:           NONE
    Schwarz Cutoff:          1E-12
    Fitting Condition:       1E-12

   => Auxiliary Basis Set <=

  Basis Set: (6-31G* AUX)
    Blend: CC-PVDZ-JKFIT
    Number of shells: 375
    Number of basis function: 1215
    Number of Cartesian functions: 1215
    Spherical Harmonics?: false
    Max angular momentum: 3

  Minimum eigenvalue in the overlap matrix is 2.4643066071E-03.
  Using Symmetric Orthogonalization.

  SCF Guess: Superposition of Atomic Densities via on-the-fly atomic UHF.

  ==> Iterations <==

                           Total Energy        Delta E     RMS |[F,P]|

   @DF-RHF iter   0:  -900.21837954558976   -9.00218e+02   3.22225e-02 
   @DF-RHF iter   1:  -889.34152611865761    1.08769e+01   4.69945e-03 
   @DF-RHF iter   2:  -889.64437603296005   -3.02850e-01   3.20136e-03 DIIS
   @DF-RHF iter   3:  -889.79571864180571   -1.51343e-01   6.28663e-04 DIIS
   @DF-RHF iter   4:  -889.80539903728425   -9.68040e-03   2.08498e-04 DIIS
   @DF-RHF iter   5:  -889.80684555076164   -1.44651e-03   5.87325e-05 DIIS
   @DF-RHF iter   6:  -889.80705579288053   -2.10242e-04   2.29604e-05 DIIS
   @DF-RHF iter   7:  -889.80708549711539   -2.97042e-05   9.48024e-06 DIIS
   @DF-RHF iter   8:  -889.80709123151553   -5.73440e-06   3.34535e-06 DIIS
   @DF-RHF iter   9:  -889.80709210892792   -8.77412e-07   1.28494e-06 DIIS
   @DF-RHF iter  10:  -889.80709221477844   -1.05851e-07   5.65125e-07 DIIS

  ==> Post-Iterations <==

    Orbital Energies [Eh]
    ---------------------

    Doubly Occupied:                                                      

       1A    -91.666900     2A    -20.413534     3A    -20.399282  
       4A    -15.452595     5A    -15.451069     6A    -11.235853  
       7A    -11.213388     8A    -11.149912     9A    -11.132833  
      10A    -11.126654    11A    -11.073399    12A     -8.674610  
      13A     -6.358385    14A     -6.355328    15A     -6.355076  
      16A     -1.276547    17A     -1.263436    18A     -1.114923  
      19A     -1.102067    20A     -0.922353    21A     -0.870105  
      22A     -0.840481    23A     -0.747051    24A     -0.675066  
      25A     -0.650404    26A     -0.601906    27A     -0.577348  
      28A     -0.563551    29A     -0.546036    30A     -0.520481  
      31A     -0.506341    32A     -0.499592    33A     -0.472937  
      34A     -0.467694    35A     -0.443631    36A     -0.438892  
      37A     -0.412162    38A     -0.398951    39A     -0.387323  
      40A     -0.359319    41A     -0.313686    42A     -0.307655  
      43A     -0.271930    44A     -0.260460    45A     -0.245258  
      46A     -0.109358    47A     -0.103954  

    Virtual:                                                              

      48A      0.308315    49A      0.326478    50A      0.355097  
      51A      0.356506    52A      0.394171    53A      0.399088  
      54A      0.404658    55A      0.421573    56A      0.431363  
      57A      0.440372    58A      0.459641    59A      0.460043  
      60A      0.469866    61A      0.489870    62A      0.514351  
      63A      0.533281    64A      0.556443    65A      0.572719  
      66A      0.597410    67A      0.620927    68A      0.643344  
      69A      0.718398    70A      0.752051    71A      0.758771  
      72A      0.785280    73A      0.804571    74A      0.829561  
      75A      0.854369    76A      0.862848    77A      0.864807  
      78A      0.880296    79A      0.889619    80A      0.912922  
      81A      0.940487    82A      0.941582    83A      0.961851  
      84A      0.974858    85A      1.025623    86A      1.045027  
      87A      1.060094    88A      1.069232    89A      1.100711  
      90A      1.111182    91A      1.118793    92A      1.145269  
      93A      1.152507    94A      1.199686    95A      1.207742  
      96A      1.222195    97A      1.236077    98A      1.241842  
      99A      1.250965   100A      1.271085   101A      1.283697  
     102A      1.293188   103A      1.304140   104A      1.306826  
     105A      1.311445   106A      1.320385   107A      1.329283  
     108A      1.344244   109A      1.364498   110A      1.374195  
     111A      1.407501   112A      1.433876   113A      1.447504  
     114A      1.448709   115A      1.470161   116A      1.486560  
     117A      1.503636   118A      1.536800   119A      1.544269  
     120A      1.573709   121A      1.603068   122A      1.655227  
     123A      1.685930   124A      1.708329   125A      1.758305  
     126A      1.795209   127A      1.821415   128A      1.835253  
     129A      1.860116   130A      1.880261   131A      1.944938  
     132A      1.976387   133A      2.034696   134A      2.070499  
     135A      2.117440   136A      2.168186   137A      2.176101  
     138A      2.203699   139A      2.228295   140A      2.246627  
     141A      2.258746   142A      2.294018   143A      2.305714  
     144A      2.341114   145A      2.363521   146A      2.373723  
     147A      2.426128   148A      2.436954   149A      2.452442  
     150A      2.486522   151A      2.499129   152A      2.513039  
     153A      2.549446   154A      2.587454   155A      2.625166  
     156A      2.658723   157A      2.676639   158A      2.701211  
     159A      2.732792   160A      2.752328   161A      2.788485  
     162A      2.821399   163A      2.830173   164A      2.871571  
     165A      2.907892   166A      2.963186   167A      2.982622  
     168A      3.001530   169A      3.043282   170A      3.113049  
     171A      3.150450   172A      3.203452   173A      3.216000  
     174A      3.264834   175A      3.406293   176A      3.447355  
     177A      3.496800   178A      3.533212   179A      3.661825  
     180A      3.678299   181A      4.520383   182A      4.552201  
     183A      4.591428   184A      4.610631   185A      4.711438  
     186A      4.742668   187A      4.805112   188A      4.872966  
     189A      5.007549   190A      5.022116   191A      5.186290  

    Final Occupation by Irrep:
              A 
    DOCC [    47 ]

  Energy converged.

  @DF-RHF Final Energy:  -889.80709221477844

   => Energetics <=

    Nuclear Repulsion Energy =            722.6743435525397672
    One-Electron Energy =               -2672.3031969994985957
    Two-Electron Energy =                1059.8217612321802790
    Total Energy =                       -889.8070922147785495



Properties will be evaluated at   0.000000,   0.000000,   0.000000 [a0]

Properties computed using the HF density matrix

  Nuclear Dipole Moment: [e a0]
     X:     2.3622      Y:    -4.6771      Z:     5.3933

  Electronic Dipole Moment: [e a0]
     X:    -2.1949      Y:     0.8105      Z:    -4.7399

  Dipole Moment: [e a0]
     X:     0.1673      Y:    -3.8666      Z:     0.6534     Total:     3.9250

  Dipole Moment: [D]
     X:     0.4252      Y:    -9.8279      Z:     1.6607     Total:     9.9762


 Field computed on the grid and written to grid_field.dat

 Electrostatic potential computed on the grid and written to grid_esp.dat

*** tstop() called on sophon at Sun Nov 25 21:03:40 2018
Module time:
	user time   =      78.58 seconds =       1.31 minutes
	system time =       0.45 seconds =       0.01 minutes
	total time  =         79 seconds =       1.32 minutes
Total time:
	user time   =      78.58 seconds =       1.31 minutes
	system time =       0.45 seconds =       0.01 minutes
	total time  =         79 seconds =       1.32 minutes

    Psi4 stopped on: Sunday, 25 November 2018 09:03PM
    Psi4 wall time for execution: 0:01:19.07

*** Psi4 exiting successfully. Buy a developer a beer!
