
    -----------------------------------------------------------------------
          Psi4: An Open-Source Ab Initio Electronic Structure Package
                               Psi4 1.2.1 release

                         Git: Rev {HEAD} 406f4de 


    R. M. Parrish, L. A. Burns, D. G. A. Smith, A. C. Simmonett,
    A. E. DePrince III, E. G. Hohenstein, U. Bozkaya, A. Yu. Sokolov,
    R. Di Remigio, R. M. Richard, J. F. Gonthier, A. M. James,
    H. R. McAlexander, A. Kumar, M. Saitow, X. Wang, B. P. Pritchard,
    P. Verma, H. F. Schaefer III, K. Patkowski, R. A. King, E. F. Valeev,
    F. A. Evangelista, J. M. Turney, T. D. Crawford, and C. D. Sherrill,
    J. Chem. Theory Comput. 13(7) pp 3185--3197 (2017).
    (doi: 10.1021/acs.jctc.7b00174)


                         Additional Contributions by
    P. Kraus, H. Kruse, M. H. Lechner, M. C. Schieber, and R. A. Shaw

    -----------------------------------------------------------------------


    Psi4 started on: Sunday, 25 November 2018 08:31PM

    Process ID: 26360
    Host:       sophon
    PSIDATADIR: /home/hyesu/anaconda3/envs/respyte/share/psi4
    Memory:     500.0 MiB
    Threads:    1
    
  ==> Input File <==

--------------------------------------------------------------------------
memory 12 gb
molecule meoh {
noreorient
nocom
0 1
H     1.7670     3.1730     2.6150
C     1.9140     2.2220     2.1200
H     2.7990     1.7610     2.5450
H     2.0750     2.3840     1.0620
C     0.7220     1.3390     2.4150
O     0.2750     1.2420     3.5340
N     0.2140     0.6620     1.3700
H     0.6690     0.7240     0.4870
C    -0.9690    -0.1790     1.4420
H    -1.6070     0.2440     2.2090
C    -1.7280    -0.1490     0.1060
H    -2.2040     0.8220     0.0250
H    -2.5180    -0.8850     0.1600
C    -0.8860    -0.3820    -1.1230
C    -0.5060    -1.5690    -1.6490
H    -0.7100    -2.5540    -1.2860
N     0.2450    -1.3750    -2.7780
H     0.6340    -2.0980    -3.3350
C     0.3710    -0.0320    -3.0100
C     1.0380     0.6510    -4.0250
H     1.5690     0.1230    -4.7970
C     0.9940     2.0250    -4.0050
H     1.4990     2.5830    -4.7740
C     0.3000     2.7150    -2.9990
H     0.2820     3.7910    -3.0160
C    -0.3570     2.0350    -2.0010
H    -0.8900     2.5760    -1.2380
C    -0.3280     0.6350    -1.9930
C    -0.6470    -1.6140     1.8940
O    -0.9690    -2.5800     1.2480
N    -0.0180    -1.7070     3.0760
H     0.1210    -0.8740     3.6070
C     0.2900    -2.9900     3.6650
H    -0.6090    -3.5330     3.9360
H     0.8830    -2.8260     4.5560
H     0.8570    -3.5990     2.9740
}
set {
basis 6-31g*
}
E,wfn = prop('HF' , properties = ['GRID_ESP', 'GRID_FIELD'], return_wfn=True)
--------------------------------------------------------------------------

  Memory set to  11.176 GiB by Python driver.

*** tstart() called on sophon
*** at Sun Nov 25 20:31:57 2018

   => Loading Basis Set <=

    Name: 6-31G*
    Role: ORBITAL
    Keyword: BASIS
    atoms 1, 3-4, 8, 10, 12-13, 16, 18, 21, 23, 25, 27, 32, 34-36 entry H          line    44 file /home/hyesu/anaconda3/envs/respyte/share/psi4/basis/6-31gs.gbs 
    atoms 2, 5, 9, 11, 14-15, 19-20, 22, 24, 26, 28-29, 33        entry C          line   111 file /home/hyesu/anaconda3/envs/respyte/share/psi4/basis/6-31gs.gbs 
    atoms 6, 30                                                   entry O          line   145 file /home/hyesu/anaconda3/envs/respyte/share/psi4/basis/6-31gs.gbs 
    atoms 7, 17, 31                                               entry N          line   128 file /home/hyesu/anaconda3/envs/respyte/share/psi4/basis/6-31gs.gbs 


         ---------------------------------------------------------
                                   SCF
            by Justin Turney, Rob Parrish, Andy Simmonett
                             and Daniel Smith
                              RHF Reference
                        1 Threads,  11444 MiB Core
         ---------------------------------------------------------

  ==> Geometry <==

    Molecular point group: c1
    Full point group: C1

    Geometry (in Angstrom), charge = 0, multiplicity = 1:

       Center              X                  Y                   Z               Mass       
    ------------   -----------------  -----------------  -----------------  -----------------
         H            1.767000000000     3.173000000000     2.615000000000     1.007825032070
         C            1.914000000000     2.222000000000     2.120000000000    12.000000000000
         H            2.799000000000     1.761000000000     2.545000000000     1.007825032070
         H            2.075000000000     2.384000000000     1.062000000000     1.007825032070
         C            0.722000000000     1.339000000000     2.415000000000    12.000000000000
         O            0.275000000000     1.242000000000     3.534000000000    15.994914619560
         N            0.214000000000     0.662000000000     1.370000000000    14.003074004780
         H            0.669000000000     0.724000000000     0.487000000000     1.007825032070
         C           -0.969000000000    -0.179000000000     1.442000000000    12.000000000000
         H           -1.607000000000     0.244000000000     2.209000000000     1.007825032070
         C           -1.728000000000    -0.149000000000     0.106000000000    12.000000000000
         H           -2.204000000000     0.822000000000     0.025000000000     1.007825032070
         H           -2.518000000000    -0.885000000000     0.160000000000     1.007825032070
         C           -0.886000000000    -0.382000000000    -1.123000000000    12.000000000000
         C           -0.506000000000    -1.569000000000    -1.649000000000    12.000000000000
         H           -0.710000000000    -2.554000000000    -1.286000000000     1.007825032070
         N            0.245000000000    -1.375000000000    -2.778000000000    14.003074004780
         H            0.634000000000    -2.098000000000    -3.335000000000     1.007825032070
         C            0.371000000000    -0.032000000000    -3.010000000000    12.000000000000
         C            1.038000000000     0.651000000000    -4.025000000000    12.000000000000
         H            1.569000000000     0.123000000000    -4.797000000000     1.007825032070
         C            0.994000000000     2.025000000000    -4.005000000000    12.000000000000
         H            1.499000000000     2.583000000000    -4.774000000000     1.007825032070
         C            0.300000000000     2.715000000000    -2.999000000000    12.000000000000
         H            0.282000000000     3.791000000000    -3.016000000000     1.007825032070
         C           -0.357000000000     2.035000000000    -2.001000000000    12.000000000000
         H           -0.890000000000     2.576000000000    -1.238000000000     1.007825032070
         C           -0.328000000000     0.635000000000    -1.993000000000    12.000000000000
         C           -0.647000000000    -1.614000000000     1.894000000000    12.000000000000
         O           -0.969000000000    -2.580000000000     1.248000000000    15.994914619560
         N           -0.018000000000    -1.707000000000     3.076000000000    14.003074004780
         H            0.121000000000    -0.874000000000     3.607000000000     1.007825032070
         C            0.290000000000    -2.990000000000     3.665000000000    12.000000000000
         H           -0.609000000000    -3.533000000000     3.936000000000     1.007825032070
         H            0.883000000000    -2.826000000000     4.556000000000     1.007825032070
         H            0.857000000000    -3.599000000000     2.974000000000     1.007825032070

  Running in c1 symmetry.

  Rotational constants: A =      0.02039  B =      0.00838  C =      0.00664 [cm^-1]
  Rotational constants: A =    611.13104  B =    251.20158  C =    198.96645 [MHz]
  Nuclear repulsion = 1435.362129179722615

  Charge       = 0
  Multiplicity = 1
  Electrons    = 138
  Nalpha       = 69
  Nbeta        = 69

  ==> Algorithm <==

  SCF Algorithm Type is DF.
  DIIS enabled.
  MOM disabled.
  Fractional occupation disabled.
  Guess Type is SAD.
  Energy threshold   = 1.00e-06
  Density threshold  = 1.00e-06
  Integral threshold = 0.00e+00

  ==> Primary Basis <==

  Basis Set: 6-31G*
    Blend: 6-31G*
    Number of shells: 148
    Number of basis function: 319
    Number of Cartesian functions: 319
    Spherical Harmonics?: false
    Max angular momentum: 2

   => Loading Basis Set <=

    Name: (6-31G* AUX)
    Role: JKFIT
    Keyword: DF_BASIS_SCF
    atoms 1, 3-4, 8, 10, 12-13, 16, 18, 21, 23, 25, 27, 32, 34-36 entry H          line    51 file /home/hyesu/anaconda3/envs/respyte/share/psi4/basis/cc-pvdz-jkfit.gbs 
    atoms 2, 5, 9, 11, 14-15, 19-20, 22, 24, 26, 28-29, 33        entry C          line   121 file /home/hyesu/anaconda3/envs/respyte/share/psi4/basis/cc-pvdz-jkfit.gbs 
    atoms 6, 30                                                   entry O          line   221 file /home/hyesu/anaconda3/envs/respyte/share/psi4/basis/cc-pvdz-jkfit.gbs 
    atoms 7, 17, 31                                               entry N          line   171 file /home/hyesu/anaconda3/envs/respyte/share/psi4/basis/cc-pvdz-jkfit.gbs 

  ==> Pre-Iterations <==

   -------------------------------------------------------
    Irrep   Nso     Nmo     Nalpha   Nbeta   Ndocc  Nsocc
   -------------------------------------------------------
     A        319     319       0       0       0       0
   -------------------------------------------------------
    Total     319     319      69      69      69       0
   -------------------------------------------------------

  ==> Integral Setup <==

  ==> DiskDFJK: Density-Fitted J/K Matrices <==

    J tasked:                  Yes
    K tasked:                  Yes
    wK tasked:                  No
    OpenMP threads:              1
    Integrals threads:           1
    Memory (MB):              8583
    Algorithm:                Core
    Integral Cache:           NONE
    Schwarz Cutoff:          1E-12
    Fitting Condition:       1E-12

   => Auxiliary Basis Set <=

  Basis Set: (6-31G* AUX)
    Blend: CC-PVDZ-JKFIT
    Number of shells: 609
    Number of basis function: 1964
    Number of Cartesian functions: 1964
    Spherical Harmonics?: false
    Max angular momentum: 3

  Minimum eigenvalue in the overlap matrix is 3.4820448273E-04.
  Using Symmetric Orthogonalization.

  SCF Guess: Superposition of Atomic Densities via on-the-fly atomic UHF.

  ==> Iterations <==

                           Total Energy        Delta E     RMS |[F,P]|

   @DF-RHF iter   0:  -860.80603613389007   -8.60806e+02   2.52931e-02 
   @DF-RHF iter   1:  -852.63464278231550    8.17139e+00   2.74000e-03 
   @DF-RHF iter   2:  -853.06152706598994   -4.26884e-01   1.49498e-03 DIIS
   @DF-RHF iter   3:  -853.15467409814300   -9.31470e-02   4.94702e-04 DIIS
   @DF-RHF iter   4:  -853.17224978306444   -1.75757e-02   1.27820e-04 DIIS
   @DF-RHF iter   5:  -853.17376114981028   -1.51137e-03   4.96987e-05 DIIS
   @DF-RHF iter   6:  -853.17416780902045   -4.06659e-04   2.27765e-05 DIIS
   @DF-RHF iter   7:  -853.17425438352473   -8.65745e-05   8.64841e-06 DIIS
   @DF-RHF iter   8:  -853.17426460201068   -1.02185e-05   3.04144e-06 DIIS
   @DF-RHF iter   9:  -853.17426613936686   -1.53736e-06   1.20046e-06 DIIS
   @DF-RHF iter  10:  -853.17426636487437   -2.25508e-07   5.01376e-07 DIIS

  ==> Post-Iterations <==

    Orbital Energies [Eh]
    ---------------------

    Doubly Occupied:                                                      

       1A    -20.528878     2A    -20.518985     3A    -15.604096  
       4A    -15.592293     5A    -15.569922     6A    -11.356785  
       7A    -11.337037     8A    -11.277677     9A    -11.264036  
      10A    -11.260206    11A    -11.249225    12A    -11.236267  
      13A    -11.232096    14A    -11.232024    15A    -11.231378  
      16A    -11.228848    17A    -11.225152    18A    -11.222301  
      19A    -11.216843    20A     -1.398051    21A     -1.383888  
      22A     -1.301868    23A     -1.247438    24A     -1.219674  
      25A     -1.136442    26A     -1.086751    27A     -1.042041  
      28A     -1.003982    29A     -0.996867    30A     -0.977569  
      31A     -0.951666    32A     -0.880589    33A     -0.844385  
      34A     -0.812040    35A     -0.804102    36A     -0.781832  
      37A     -0.757188    38A     -0.732159    39A     -0.722885  
      40A     -0.683395    41A     -0.668199    42A     -0.657618  
      43A     -0.649386    44A     -0.638702    45A     -0.618742  
      46A     -0.613687    47A     -0.608904    48A     -0.599258  
      49A     -0.593566    50A     -0.587182    51A     -0.584782  
      52A     -0.574837    53A     -0.560872    54A     -0.548607  
      55A     -0.541823    56A     -0.530937    57A     -0.527518  
      58A     -0.520490    59A     -0.507627    60A     -0.497038  
      61A     -0.475189    62A     -0.468269    63A     -0.439124  
      64A     -0.425237    65A     -0.387339    66A     -0.380785  
      67A     -0.372981    68A     -0.301545    69A     -0.280656  

    Virtual:                                                              

      70A      0.129775    71A      0.170169    72A      0.185677  
      73A      0.209441    74A      0.225900    75A      0.229080  
      76A      0.239896    77A      0.245557    78A      0.257251  
      79A      0.271652    80A      0.280702    81A      0.296300  
      82A      0.301161    83A      0.308644    84A      0.314916  
      85A      0.319687    86A      0.325289    87A      0.338531  
      88A      0.341999    89A      0.343460    90A      0.349850  
      91A      0.366401    92A      0.383162    93A      0.392531  
      94A      0.403436    95A      0.406740    96A      0.421825  
      97A      0.445666    98A      0.455130    99A      0.467246  
     100A      0.468697   101A      0.478489   102A      0.495046  
     103A      0.514464   104A      0.527267   105A      0.539993  
     106A      0.578203   107A      0.590644   108A      0.608863  
     109A      0.637509   110A      0.669463   111A      0.704092  
     112A      0.708202   113A      0.718786   114A      0.730758  
     115A      0.739782   116A      0.746495   117A      0.755561  
     118A      0.762852   119A      0.767458   120A      0.776235  
     121A      0.784826   122A      0.795824   123A      0.803370  
     124A      0.810173   125A      0.817244   126A      0.827647  
     127A      0.834248   128A      0.842072   129A      0.844813  
     130A      0.858532   131A      0.863177   132A      0.871783  
     133A      0.880015   134A      0.894357   135A      0.898968  
     136A      0.904867   137A      0.928883   138A      0.935025  
     139A      0.945958   140A      0.956625   141A      0.969343  
     142A      0.984410   143A      1.000182   144A      1.024423  
     145A      1.034986   146A      1.036876   147A      1.059578  
     148A      1.063532   149A      1.079760   150A      1.095120  
     151A      1.098036   152A      1.109551   153A      1.114192  
     154A      1.116165   155A      1.120165   156A      1.126421  
     157A      1.137700   158A      1.146436   159A      1.148102  
     160A      1.163803   161A      1.172071   162A      1.176452  
     163A      1.181610   164A      1.192083   165A      1.198917  
     166A      1.209302   167A      1.210757   168A      1.215706  
     169A      1.225026   170A      1.232164   171A      1.235211  
     172A      1.244515   173A      1.258559   174A      1.270045  
     175A      1.295092   176A      1.304956   177A      1.313353  
     178A      1.334332   179A      1.343321   180A      1.355732  
     181A      1.387812   182A      1.395118   183A      1.432419  
     184A      1.442529   185A      1.465059   186A      1.485179  
     187A      1.488102   188A      1.499237   189A      1.512802  
     190A      1.536727   191A      1.544537   192A      1.578283  
     193A      1.597066   194A      1.606178   195A      1.610066  
     196A      1.634143   197A      1.645961   198A      1.662811  
     199A      1.676563   200A      1.683864   201A      1.702009  
     202A      1.714805   203A      1.731782   204A      1.741548  
     205A      1.746655   206A      1.766579   207A      1.770482  
     208A      1.784138   209A      1.795318   210A      1.796635  
     211A      1.839887   212A      1.875212   213A      1.896442  
     214A      1.929095   215A      1.975382   216A      1.986539  
     217A      2.002024   218A      2.046725   219A      2.056795  
     220A      2.078834   221A      2.103118   222A      2.117055  
     223A      2.132265   224A      2.137400   225A      2.141420  
     226A      2.153050   227A      2.183648   228A      2.193021  
     229A      2.209356   230A      2.215599   231A      2.226395  
     232A      2.229983   233A      2.248267   234A      2.269438  
     235A      2.278654   236A      2.299908   237A      2.304971  
     238A      2.325035   239A      2.332061   240A      2.341980  
     241A      2.363231   242A      2.383312   243A      2.387011  
     244A      2.397392   245A      2.406492   246A      2.426792  
     247A      2.431620   248A      2.457765   249A      2.487485  
     250A      2.504223   251A      2.509561   252A      2.518610  
     253A      2.546625   254A      2.551141   255A      2.572712  
     256A      2.579160   257A      2.587889   258A      2.596801  
     259A      2.612427   260A      2.628550   261A      2.654015  
     262A      2.680292   263A      2.710162   264A      2.715504  
     265A      2.722530   266A      2.743850   267A      2.753589  
     268A      2.769237   269A      2.784201   270A      2.828705  
     271A      2.853861   272A      2.858365   273A      2.876246  
     274A      2.931633   275A      2.936680   276A      2.956872  
     277A      2.964520   278A      3.000139   279A      3.021266  
     280A      3.034586   281A      3.047825   282A      3.057159  
     283A      3.073809   284A      3.102041   285A      3.125077  
     286A      3.139420   287A      3.150226   288A      3.190833  
     289A      3.243566   290A      3.278079   291A      3.308694  
     292A      3.346168   293A      3.385079   294A      3.389243  
     295A      3.439458   296A      3.547074   297A      3.561732  
     298A      3.589989   299A      3.645598   300A      3.865895  
     301A      4.397710   302A      4.454261   303A      4.473836  
     304A      4.486003   305A      4.533587   306A      4.561202  
     307A      4.576711   308A      4.613614   309A      4.634748  
     310A      4.659291   311A      4.720155   312A      4.762224  
     313A      4.828221   314A      4.842782   315A      4.919139  
     316A      4.978314   317A      5.020504   318A      5.104480  
     319A      5.253459  

    Final Occupation by Irrep:
              A 
    DOCC [    69 ]

  Energy converged.

  @DF-RHF Final Energy:  -853.17426636487437

   => Energetics <=

    Nuclear Repulsion Energy =           1435.3621291797226149
    One-Electron Energy =               -4014.4537834787852262
    Two-Electron Energy =                1725.9173879341883548
    Total Energy =                       -853.1742663648742564



Properties will be evaluated at   0.000000,   0.000000,   0.000000 [a0]

Properties computed using the HF density matrix

  Nuclear Dipole Moment: [e a0]
     X:     6.4251      Y:     4.5542      Z:     1.2926

  Electronic Dipole Moment: [e a0]
     X:    -5.4354      Y:    -4.4665      Z:    -2.0465

  Dipole Moment: [e a0]
     X:     0.9897      Y:     0.0878      Z:    -0.7539     Total:     1.2473

  Dipole Moment: [D]
     X:     2.5156      Y:     0.2231      Z:    -1.9163     Total:     3.1702


 Field computed on the grid and written to grid_field.dat

 Electrostatic potential computed on the grid and written to grid_esp.dat

*** tstop() called on sophon at Sun Nov 25 20:36:44 2018
Module time:
	user time   =     285.35 seconds =       4.76 minutes
	system time =       1.59 seconds =       0.03 minutes
	total time  =        287 seconds =       4.78 minutes
Total time:
	user time   =     285.35 seconds =       4.76 minutes
	system time =       1.59 seconds =       0.03 minutes
	total time  =        287 seconds =       4.78 minutes

    Psi4 stopped on: Sunday, 25 November 2018 08:36PM
    Psi4 wall time for execution: 0:04:47.02

*** Psi4 exiting successfully. Buy a developer a beer!
