
    -----------------------------------------------------------------------
          Psi4: An Open-Source Ab Initio Electronic Structure Package
                               Psi4 1.2.1 release

                         Git: Rev {HEAD} 406f4de 


    R. M. Parrish, L. A. Burns, D. G. A. Smith, A. C. Simmonett,
    A. E. DePrince III, E. G. Hohenstein, U. Bozkaya, A. Yu. Sokolov,
    R. Di Remigio, R. M. Richard, J. F. Gonthier, A. M. James,
    H. R. McAlexander, A. Kumar, M. Saitow, X. Wang, B. P. Pritchard,
    P. Verma, H. F. Schaefer III, K. Patkowski, R. A. King, E. F. Valeev,
    F. A. Evangelista, J. M. Turney, T. D. Crawford, and C. D. Sherrill,
    J. Chem. Theory Comput. 13(7) pp 3185--3197 (2017).
    (doi: 10.1021/acs.jctc.7b00174)


                         Additional Contributions by
    P. Kraus, H. Kruse, M. H. Lechner, M. C. Schieber, and R. A. Shaw

    -----------------------------------------------------------------------


    Psi4 started on: Sunday, 25 November 2018 08:27PM

    Process ID: 26283
    Host:       sophon
    PSIDATADIR: /home/hyesu/anaconda3/envs/respyte/share/psi4
    Memory:     500.0 MiB
    Threads:    1
    
  ==> Input File <==

--------------------------------------------------------------------------
memory 12 gb
molecule meoh {
noreorient
nocom
0 1
H     3.8070     2.1670     2.8760
C     3.5040     2.8620     2.0990
H     4.3490     3.0570     1.4550
H     3.1800     3.7830     2.5700
C     2.4000     2.2210     1.2890
O     2.6120     1.6920     0.2330
N     1.1550     2.3200     1.8420
H     1.1590     2.5630     2.8080
C     0.0730     1.4270     1.4760
H    -0.7700     1.7560     2.0750
C    -0.3470     1.5860    -0.0250
H     0.2610     2.3780    -0.4320
H    -1.3670     1.9550    -0.0410
C    -0.2730     0.3820    -0.9290
C     0.8320    -0.1910    -1.4590
H     1.8550     0.0860    -1.3250
N     0.4840    -1.2600    -2.2420
H     1.1250    -1.8330    -2.7390
C    -0.8770    -1.4000    -2.2390
C    -1.6920    -2.3300    -2.8800
H    -1.2740    -3.1030    -3.5020
C    -3.0510    -2.2270    -2.6920
H    -3.7070    -2.9300    -3.1730
C    -3.5970    -1.2180    -1.8850
H    -4.6640    -1.1610    -1.7630
C    -2.7860    -0.3000    -1.2570
H    -3.2210     0.4760    -0.6510
C    -1.3980    -0.3830    -1.4260
C     0.3750     0.0080     1.9950
O     1.3990    -0.2360     2.5730
N    -0.6320    -0.8870     1.8890
H    -1.3240    -0.7250     1.1930
C    -0.4220    -2.2670     2.2750
H    -1.3700    -2.7850     2.2290
H    -0.0460    -2.3090     3.2870
H     0.2870    -2.7680     1.6240
}
set {
basis 6-31g*
}
E,wfn = prop('HF' , properties = ['GRID_ESP', 'GRID_FIELD'], return_wfn=True)
--------------------------------------------------------------------------

  Memory set to  11.176 GiB by Python driver.

*** tstart() called on sophon
*** at Sun Nov 25 20:27:13 2018

   => Loading Basis Set <=

    Name: 6-31G*
    Role: ORBITAL
    Keyword: BASIS
    atoms 1, 3-4, 8, 10, 12-13, 16, 18, 21, 23, 25, 27, 32, 34-36 entry H          line    44 file /home/hyesu/anaconda3/envs/respyte/share/psi4/basis/6-31gs.gbs 
    atoms 2, 5, 9, 11, 14-15, 19-20, 22, 24, 26, 28-29, 33        entry C          line   111 file /home/hyesu/anaconda3/envs/respyte/share/psi4/basis/6-31gs.gbs 
    atoms 6, 30                                                   entry O          line   145 file /home/hyesu/anaconda3/envs/respyte/share/psi4/basis/6-31gs.gbs 
    atoms 7, 17, 31                                               entry N          line   128 file /home/hyesu/anaconda3/envs/respyte/share/psi4/basis/6-31gs.gbs 


         ---------------------------------------------------------
                                   SCF
            by Justin Turney, Rob Parrish, Andy Simmonett
                             and Daniel Smith
                              RHF Reference
                        1 Threads,  11444 MiB Core
         ---------------------------------------------------------

  ==> Geometry <==

    Molecular point group: c1
    Full point group: C1

    Geometry (in Angstrom), charge = 0, multiplicity = 1:

       Center              X                  Y                   Z               Mass       
    ------------   -----------------  -----------------  -----------------  -----------------
         H            3.807000000000     2.167000000000     2.876000000000     1.007825032070
         C            3.504000000000     2.862000000000     2.099000000000    12.000000000000
         H            4.349000000000     3.057000000000     1.455000000000     1.007825032070
         H            3.180000000000     3.783000000000     2.570000000000     1.007825032070
         C            2.400000000000     2.221000000000     1.289000000000    12.000000000000
         O            2.612000000000     1.692000000000     0.233000000000    15.994914619560
         N            1.155000000000     2.320000000000     1.842000000000    14.003074004780
         H            1.159000000000     2.563000000000     2.808000000000     1.007825032070
         C            0.073000000000     1.427000000000     1.476000000000    12.000000000000
         H           -0.770000000000     1.756000000000     2.075000000000     1.007825032070
         C           -0.347000000000     1.586000000000    -0.025000000000    12.000000000000
         H            0.261000000000     2.378000000000    -0.432000000000     1.007825032070
         H           -1.367000000000     1.955000000000    -0.041000000000     1.007825032070
         C           -0.273000000000     0.382000000000    -0.929000000000    12.000000000000
         C            0.832000000000    -0.191000000000    -1.459000000000    12.000000000000
         H            1.855000000000     0.086000000000    -1.325000000000     1.007825032070
         N            0.484000000000    -1.260000000000    -2.242000000000    14.003074004780
         H            1.125000000000    -1.833000000000    -2.739000000000     1.007825032070
         C           -0.877000000000    -1.400000000000    -2.239000000000    12.000000000000
         C           -1.692000000000    -2.330000000000    -2.880000000000    12.000000000000
         H           -1.274000000000    -3.103000000000    -3.502000000000     1.007825032070
         C           -3.051000000000    -2.227000000000    -2.692000000000    12.000000000000
         H           -3.707000000000    -2.930000000000    -3.173000000000     1.007825032070
         C           -3.597000000000    -1.218000000000    -1.885000000000    12.000000000000
         H           -4.664000000000    -1.161000000000    -1.763000000000     1.007825032070
         C           -2.786000000000    -0.300000000000    -1.257000000000    12.000000000000
         H           -3.221000000000     0.476000000000    -0.651000000000     1.007825032070
         C           -1.398000000000    -0.383000000000    -1.426000000000    12.000000000000
         C            0.375000000000     0.008000000000     1.995000000000    12.000000000000
         O            1.399000000000    -0.236000000000     2.573000000000    15.994914619560
         N           -0.632000000000    -0.887000000000     1.889000000000    14.003074004780
         H           -1.324000000000    -0.725000000000     1.193000000000     1.007825032070
         C           -0.422000000000    -2.267000000000     2.275000000000    12.000000000000
         H           -1.370000000000    -2.785000000000     2.229000000000     1.007825032070
         H           -0.046000000000    -2.309000000000     3.287000000000     1.007825032070
         H            0.287000000000    -2.768000000000     1.624000000000     1.007825032070

  Running in c1 symmetry.

  Rotational constants: A =      0.02472  B =      0.00796  C =      0.00726 [cm^-1]
  Rotational constants: A =    741.21161  B =    238.65708  C =    217.79084 [MHz]
  Nuclear repulsion = 1456.844448864762398

  Charge       = 0
  Multiplicity = 1
  Electrons    = 138
  Nalpha       = 69
  Nbeta        = 69

  ==> Algorithm <==

  SCF Algorithm Type is DF.
  DIIS enabled.
  MOM disabled.
  Fractional occupation disabled.
  Guess Type is SAD.
  Energy threshold   = 1.00e-06
  Density threshold  = 1.00e-06
  Integral threshold = 0.00e+00

  ==> Primary Basis <==

  Basis Set: 6-31G*
    Blend: 6-31G*
    Number of shells: 148
    Number of basis function: 319
    Number of Cartesian functions: 319
    Spherical Harmonics?: false
    Max angular momentum: 2

   => Loading Basis Set <=

    Name: (6-31G* AUX)
    Role: JKFIT
    Keyword: DF_BASIS_SCF
    atoms 1, 3-4, 8, 10, 12-13, 16, 18, 21, 23, 25, 27, 32, 34-36 entry H          line    51 file /home/hyesu/anaconda3/envs/respyte/share/psi4/basis/cc-pvdz-jkfit.gbs 
    atoms 2, 5, 9, 11, 14-15, 19-20, 22, 24, 26, 28-29, 33        entry C          line   121 file /home/hyesu/anaconda3/envs/respyte/share/psi4/basis/cc-pvdz-jkfit.gbs 
    atoms 6, 30                                                   entry O          line   221 file /home/hyesu/anaconda3/envs/respyte/share/psi4/basis/cc-pvdz-jkfit.gbs 
    atoms 7, 17, 31                                               entry N          line   171 file /home/hyesu/anaconda3/envs/respyte/share/psi4/basis/cc-pvdz-jkfit.gbs 

  ==> Pre-Iterations <==

   -------------------------------------------------------
    Irrep   Nso     Nmo     Nalpha   Nbeta   Ndocc  Nsocc
   -------------------------------------------------------
     A        319     319       0       0       0       0
   -------------------------------------------------------
    Total     319     319      69      69      69       0
   -------------------------------------------------------

  ==> Integral Setup <==

  ==> DiskDFJK: Density-Fitted J/K Matrices <==

    J tasked:                  Yes
    K tasked:                  Yes
    wK tasked:                  No
    OpenMP threads:              1
    Integrals threads:           1
    Memory (MB):              8583
    Algorithm:                Core
    Integral Cache:           NONE
    Schwarz Cutoff:          1E-12
    Fitting Condition:       1E-12

   => Auxiliary Basis Set <=

  Basis Set: (6-31G* AUX)
    Blend: CC-PVDZ-JKFIT
    Number of shells: 609
    Number of basis function: 1964
    Number of Cartesian functions: 1964
    Spherical Harmonics?: false
    Max angular momentum: 3

  Minimum eigenvalue in the overlap matrix is 3.4547946384E-04.
  Using Symmetric Orthogonalization.

  SCF Guess: Superposition of Atomic Densities via on-the-fly atomic UHF.

  ==> Iterations <==

                           Total Energy        Delta E     RMS |[F,P]|

   @DF-RHF iter   0:  -864.26455395797404   -8.64265e+02   2.69106e-02 
   @DF-RHF iter   1:  -852.65697265350002    1.16076e+01   2.70528e-03 
   @DF-RHF iter   2:  -853.02564419591783   -3.68672e-01   1.65628e-03 DIIS
   @DF-RHF iter   3:  -853.13851552178062   -1.12871e-01   4.61471e-04 DIIS
   @DF-RHF iter   4:  -853.15570909028224   -1.71936e-02   1.02090e-04 DIIS
   @DF-RHF iter   5:  -853.15694476010026   -1.23567e-03   4.30957e-05 DIIS
   @DF-RHF iter   6:  -853.15715903634850   -2.14276e-04   1.68243e-05 DIIS
   @DF-RHF iter   7:  -853.15718876034612   -2.97240e-05   5.73379e-06 DIIS
   @DF-RHF iter   8:  -853.15719220297342   -3.44263e-06   1.99249e-06 DIIS
   @DF-RHF iter   9:  -853.15719281187717   -6.08904e-07   6.49938e-07 DIIS

  ==> Post-Iterations <==

    Orbital Energies [Eh]
    ---------------------

    Doubly Occupied:                                                      

       1A    -20.522745     2A    -20.520910     3A    -15.599531  
       4A    -15.578591     5A    -15.573605     6A    -11.345391  
       7A    -11.338574     8A    -11.280612     9A    -11.260978  
      10A    -11.254031    11A    -11.247532    12A    -11.233601  
      13A    -11.230247    14A    -11.229918    15A    -11.226516  
      16A    -11.225219    17A    -11.222408    18A    -11.220873  
      19A    -11.212817    20A     -1.394784    21A     -1.383365  
      22A     -1.297626    23A     -1.234133    24A     -1.224175  
      25A     -1.134046    26A     -1.082592    27A     -1.035184  
      28A     -1.000681    29A     -0.990380    30A     -0.973176  
      31A     -0.943451    32A     -0.888288    33A     -0.842119  
      34A     -0.806186    35A     -0.790044    36A     -0.771195  
      37A     -0.759360    38A     -0.729982    39A     -0.707638  
      40A     -0.688681    41A     -0.655693    42A     -0.655470  
      43A     -0.644726    44A     -0.629344    45A     -0.619368  
      46A     -0.612439    47A     -0.607851    48A     -0.597239  
      49A     -0.587864    50A     -0.583409    51A     -0.578906  
      52A     -0.569804    53A     -0.555610    54A     -0.548669  
      55A     -0.542156    56A     -0.532503    57A     -0.527185  
      58A     -0.508235    59A     -0.499628    60A     -0.493260  
      61A     -0.474030    62A     -0.465619    63A     -0.427356  
      64A     -0.414499    65A     -0.390043    66A     -0.386106  
      67A     -0.370943    68A     -0.298401    69A     -0.277372  

    Virtual:                                                              

      70A      0.131382    71A      0.170059    72A      0.196452  
      73A      0.205237    74A      0.218208    75A      0.229511  
      76A      0.233545    77A      0.247285    78A      0.258152  
      79A      0.264717    80A      0.277656    81A      0.294314  
      82A      0.304195    83A      0.307526    84A      0.317159  
      85A      0.323175    86A      0.327417    87A      0.339498  
      88A      0.347342    89A      0.351217    90A      0.354208  
      91A      0.373633    92A      0.376952    93A      0.386573  
      94A      0.394460    95A      0.415512    96A      0.422297  
      97A      0.443270    98A      0.456278    99A      0.467063  
     100A      0.479500   101A      0.500267   102A      0.510407  
     103A      0.534332   104A      0.545783   105A      0.552061  
     106A      0.567655   107A      0.586335   108A      0.610471  
     109A      0.623722   110A      0.676492   111A      0.688000  
     112A      0.709658   113A      0.722344   114A      0.746602  
     115A      0.750497   116A      0.757915   117A      0.763156  
     118A      0.775841   119A      0.778369   120A      0.783364  
     121A      0.794010   122A      0.803506   123A      0.813177  
     124A      0.824364   125A      0.831563   126A      0.833924  
     127A      0.835309   128A      0.843641   129A      0.849858  
     130A      0.863264   131A      0.872411   132A      0.877818  
     133A      0.892984   134A      0.905890   135A      0.908137  
     136A      0.909297   137A      0.927073   138A      0.929933  
     139A      0.945614   140A      0.958834   141A      0.983896  
     142A      0.986564   143A      1.009778   144A      1.016604  
     145A      1.026696   146A      1.046088   147A      1.049724  
     148A      1.068471   149A      1.078184   150A      1.084306  
     151A      1.095175   152A      1.106445   153A      1.109296  
     154A      1.112626   155A      1.121720   156A      1.132535  
     157A      1.146400   158A      1.151626   159A      1.155799  
     160A      1.166478   161A      1.170488   162A      1.182388  
     163A      1.187514   164A      1.197037   165A      1.200448  
     166A      1.207522   167A      1.213987   168A      1.219392  
     169A      1.234598   170A      1.236217   171A      1.246239  
     172A      1.250905   173A      1.255007   174A      1.273425  
     175A      1.293809   176A      1.309305   177A      1.316991  
     178A      1.340784   179A      1.359228   180A      1.367989  
     181A      1.378993   182A      1.390430   183A      1.427228  
     184A      1.431770   185A      1.441550   186A      1.455510  
     187A      1.468654   188A      1.501980   189A      1.519499  
     190A      1.541066   191A      1.553934   192A      1.584932  
     193A      1.605360   194A      1.616163   195A      1.624756  
     196A      1.639205   197A      1.652425   198A      1.673135  
     199A      1.688280   200A      1.701395   201A      1.706240  
     202A      1.716395   203A      1.743316   204A      1.746221  
     205A      1.764073   206A      1.776909   207A      1.786922  
     208A      1.794928   209A      1.806831   210A      1.833351  
     211A      1.863876   212A      1.893654   213A      1.898825  
     214A      1.915919   215A      1.957205   216A      1.999731  
     217A      2.007192   218A      2.039163   219A      2.064277  
     220A      2.085484   221A      2.102565   222A      2.123734  
     223A      2.127138   224A      2.138497   225A      2.149220  
     226A      2.156751   227A      2.171694   228A      2.182112  
     229A      2.198109   230A      2.210064   231A      2.225800  
     232A      2.230634   233A      2.261586   234A      2.291979  
     235A      2.295426   236A      2.309456   237A      2.313292  
     238A      2.322053   239A      2.341167   240A      2.358722  
     241A      2.368007   242A      2.375295   243A      2.383981  
     244A      2.403958   245A      2.413845   246A      2.430818  
     247A      2.465282   248A      2.480287   249A      2.496167  
     250A      2.513691   251A      2.515615   252A      2.530022  
     253A      2.548418   254A      2.572292   255A      2.580398  
     256A      2.586197   257A      2.594519   258A      2.600032  
     259A      2.622674   260A      2.640081   261A      2.658038  
     262A      2.691255   263A      2.708998   264A      2.732029  
     265A      2.735385   266A      2.750320   267A      2.768660  
     268A      2.788801   269A      2.809058   270A      2.830800  
     271A      2.844008   272A      2.866610   273A      2.884184  
     274A      2.914096   275A      2.932981   276A      2.957498  
     277A      2.977249   278A      2.994297   279A      3.011950  
     280A      3.027952   281A      3.042726   282A      3.059259  
     283A      3.068110   284A      3.097856   285A      3.114749  
     286A      3.145445   287A      3.153932   288A      3.202933  
     289A      3.250563   290A      3.288132   291A      3.317297  
     292A      3.345426   293A      3.390787   294A      3.427972  
     295A      3.439811   296A      3.541095   297A      3.554030  
     298A      3.570928   299A      3.649871   300A      3.868433  
     301A      4.387105   302A      4.445555   303A      4.480255  
     304A      4.500919   305A      4.536624   306A      4.557388  
     307A      4.577643   308A      4.646190   309A      4.667394  
     310A      4.688485   311A      4.718999   312A      4.734818  
     313A      4.816343   314A      4.848026   315A      4.891474  
     316A      4.978412   317A      5.013902   318A      5.130149  
     319A      5.267089  

    Final Occupation by Irrep:
              A 
    DOCC [    69 ]

  Energy converged.

  @DF-RHF Final Energy:  -853.15719281187717

   => Energetics <=

    Nuclear Repulsion Energy =           1456.8444488647623984
    One-Electron Energy =               -4057.8934478041846887
    Two-Electron Energy =                1747.8918061275451237
    Total Energy =                       -853.1571928118771666



Properties will be evaluated at   0.000000,   0.000000,   0.000000 [a0]

Properties computed using the HF density matrix

  Nuclear Dipole Moment: [e a0]
     X:   -11.5972      Y:     4.6979      Z:    10.2310

  Electronic Dipole Moment: [e a0]
     X:    10.9616      Y:    -4.6890      Z:   -10.0507

  Dipole Moment: [e a0]
     X:    -0.6357      Y:     0.0089      Z:     0.1803     Total:     0.6608

  Dipole Moment: [D]
     X:    -1.6158      Y:     0.0226      Z:     0.4583     Total:     1.6797


 Field computed on the grid and written to grid_field.dat

 Electrostatic potential computed on the grid and written to grid_esp.dat

*** tstop() called on sophon at Sun Nov 25 20:31:56 2018
Module time:
	user time   =     281.20 seconds =       4.69 minutes
	system time =       1.48 seconds =       0.02 minutes
	total time  =        283 seconds =       4.72 minutes
Total time:
	user time   =     281.20 seconds =       4.69 minutes
	system time =       1.48 seconds =       0.02 minutes
	total time  =        283 seconds =       4.72 minutes

    Psi4 stopped on: Sunday, 25 November 2018 08:31PM
    Psi4 wall time for execution: 0:04:42.73

*** Psi4 exiting successfully. Buy a developer a beer!
