
    -----------------------------------------------------------------------
          Psi4: An Open-Source Ab Initio Electronic Structure Package
                               Psi4 1.2.1 release

                         Git: Rev {HEAD} 406f4de 


    R. M. Parrish, L. A. Burns, D. G. A. Smith, A. C. Simmonett,
    A. E. DePrince III, E. G. Hohenstein, U. Bozkaya, A. Yu. Sokolov,
    R. Di Remigio, R. M. Richard, J. F. Gonthier, A. M. James,
    H. R. McAlexander, A. Kumar, M. Saitow, X. Wang, B. P. Pritchard,
    P. Verma, H. F. Schaefer III, K. Patkowski, R. A. King, E. F. Valeev,
    F. A. Evangelista, J. M. Turney, T. D. Crawford, and C. D. Sherrill,
    J. Chem. Theory Comput. 13(7) pp 3185--3197 (2017).
    (doi: 10.1021/acs.jctc.7b00174)


                         Additional Contributions by
    P. Kraus, H. Kruse, M. H. Lechner, M. C. Schieber, and R. A. Shaw

    -----------------------------------------------------------------------


    Psi4 started on: Sunday, 25 November 2018 08:36PM

    Process ID: 26444
    Host:       sophon
    PSIDATADIR: /home/hyesu/anaconda3/envs/respyte/share/psi4
    Memory:     500.0 MiB
    Threads:    1
    
  ==> Input File <==

--------------------------------------------------------------------------
memory 12 gb
molecule meoh {
noreorient
nocom
0 1
H     4.1350     0.5860    -1.4240
C     3.3370     0.8660    -0.7510
H     2.7710     1.6800    -1.1940
H     3.7540     1.2170     0.1860
C     2.4250    -0.3240    -0.5450
O     2.4580    -1.2920    -1.2510
N     1.5760    -0.2230     0.5190
H     1.4750     0.6880     0.9080
C     0.4130    -1.0880     0.6690
H    -0.0970    -0.7140     1.5510
C    -0.5690    -1.0410    -0.5180
H    -1.4420    -1.6160    -0.2390
H    -0.1220    -1.5460    -1.3630
C    -0.9550     0.3570    -0.9080
C    -0.6040     0.9970    -2.0440
H    -0.0210     0.6340    -2.8660
N    -1.1090     2.2760    -2.0570
H    -1.0640     2.9000    -2.8280
C    -1.8330     2.4760    -0.9130
C    -2.5440     3.5940    -0.4810
H    -2.5910     4.4900    -1.0760
C    -3.1890     3.5110     0.7310
H    -3.7480     4.3550     1.0920
C    -3.1350     2.3410     1.5050
H    -3.6570     2.3070     2.4440
C    -2.4310     1.2420     1.0720
H    -2.4110     0.3450     1.6670
C    -1.7600     1.2990    -0.1550
C     0.7720    -2.5360     1.0200
O    -0.0050    -3.4240     0.7970
N     1.9290    -2.7240     1.6850
H     2.5880    -1.9830     1.6800
C     2.3940    -4.0590     1.9950
H     1.6030    -4.6200     2.4700
H     3.2310    -3.9840     2.6780
H     2.7100    -4.5940     1.1060
}
set {
basis 6-31g*
}
E,wfn = prop('HF' , properties = ['GRID_ESP', 'GRID_FIELD'], return_wfn=True)
--------------------------------------------------------------------------

  Memory set to  11.176 GiB by Python driver.

*** tstart() called on sophon
*** at Sun Nov 25 20:36:45 2018

   => Loading Basis Set <=

    Name: 6-31G*
    Role: ORBITAL
    Keyword: BASIS
    atoms 1, 3-4, 8, 10, 12-13, 16, 18, 21, 23, 25, 27, 32, 34-36 entry H          line    44 file /home/hyesu/anaconda3/envs/respyte/share/psi4/basis/6-31gs.gbs 
    atoms 2, 5, 9, 11, 14-15, 19-20, 22, 24, 26, 28-29, 33        entry C          line   111 file /home/hyesu/anaconda3/envs/respyte/share/psi4/basis/6-31gs.gbs 
    atoms 6, 30                                                   entry O          line   145 file /home/hyesu/anaconda3/envs/respyte/share/psi4/basis/6-31gs.gbs 
    atoms 7, 17, 31                                               entry N          line   128 file /home/hyesu/anaconda3/envs/respyte/share/psi4/basis/6-31gs.gbs 


         ---------------------------------------------------------
                                   SCF
            by Justin Turney, Rob Parrish, Andy Simmonett
                             and Daniel Smith
                              RHF Reference
                        1 Threads,  11444 MiB Core
         ---------------------------------------------------------

  ==> Geometry <==

    Molecular point group: c1
    Full point group: C1

    Geometry (in Angstrom), charge = 0, multiplicity = 1:

       Center              X                  Y                   Z               Mass       
    ------------   -----------------  -----------------  -----------------  -----------------
         H            4.135000000000     0.586000000000    -1.424000000000     1.007825032070
         C            3.337000000000     0.866000000000    -0.751000000000    12.000000000000
         H            2.771000000000     1.680000000000    -1.194000000000     1.007825032070
         H            3.754000000000     1.217000000000     0.186000000000     1.007825032070
         C            2.425000000000    -0.324000000000    -0.545000000000    12.000000000000
         O            2.458000000000    -1.292000000000    -1.251000000000    15.994914619560
         N            1.576000000000    -0.223000000000     0.519000000000    14.003074004780
         H            1.475000000000     0.688000000000     0.908000000000     1.007825032070
         C            0.413000000000    -1.088000000000     0.669000000000    12.000000000000
         H           -0.097000000000    -0.714000000000     1.551000000000     1.007825032070
         C           -0.569000000000    -1.041000000000    -0.518000000000    12.000000000000
         H           -1.442000000000    -1.616000000000    -0.239000000000     1.007825032070
         H           -0.122000000000    -1.546000000000    -1.363000000000     1.007825032070
         C           -0.955000000000     0.357000000000    -0.908000000000    12.000000000000
         C           -0.604000000000     0.997000000000    -2.044000000000    12.000000000000
         H           -0.021000000000     0.634000000000    -2.866000000000     1.007825032070
         N           -1.109000000000     2.276000000000    -2.057000000000    14.003074004780
         H           -1.064000000000     2.900000000000    -2.828000000000     1.007825032070
         C           -1.833000000000     2.476000000000    -0.913000000000    12.000000000000
         C           -2.544000000000     3.594000000000    -0.481000000000    12.000000000000
         H           -2.591000000000     4.490000000000    -1.076000000000     1.007825032070
         C           -3.189000000000     3.511000000000     0.731000000000    12.000000000000
         H           -3.748000000000     4.355000000000     1.092000000000     1.007825032070
         C           -3.135000000000     2.341000000000     1.505000000000    12.000000000000
         H           -3.657000000000     2.307000000000     2.444000000000     1.007825032070
         C           -2.431000000000     1.242000000000     1.072000000000    12.000000000000
         H           -2.411000000000     0.345000000000     1.667000000000     1.007825032070
         C           -1.760000000000     1.299000000000    -0.155000000000    12.000000000000
         C            0.772000000000    -2.536000000000     1.020000000000    12.000000000000
         O           -0.005000000000    -3.424000000000     0.797000000000    15.994914619560
         N            1.929000000000    -2.724000000000     1.685000000000    14.003074004780
         H            2.588000000000    -1.983000000000     1.680000000000     1.007825032070
         C            2.394000000000    -4.059000000000     1.995000000000    12.000000000000
         H            1.603000000000    -4.620000000000     2.470000000000     1.007825032070
         H            3.231000000000    -3.984000000000     2.678000000000     1.007825032070
         H            2.710000000000    -4.594000000000     1.106000000000     1.007825032070

  Running in c1 symmetry.

  Rotational constants: A =      0.02262  B =      0.00754  C =      0.00645 [cm^-1]
  Rotational constants: A =    678.04054  B =    226.00364  C =    193.43867 [MHz]
  Nuclear repulsion = 1430.812761766903805

  Charge       = 0
  Multiplicity = 1
  Electrons    = 138
  Nalpha       = 69
  Nbeta        = 69

  ==> Algorithm <==

  SCF Algorithm Type is DF.
  DIIS enabled.
  MOM disabled.
  Fractional occupation disabled.
  Guess Type is SAD.
  Energy threshold   = 1.00e-06
  Density threshold  = 1.00e-06
  Integral threshold = 0.00e+00

  ==> Primary Basis <==

  Basis Set: 6-31G*
    Blend: 6-31G*
    Number of shells: 148
    Number of basis function: 319
    Number of Cartesian functions: 319
    Spherical Harmonics?: false
    Max angular momentum: 2

   => Loading Basis Set <=

    Name: (6-31G* AUX)
    Role: JKFIT
    Keyword: DF_BASIS_SCF
    atoms 1, 3-4, 8, 10, 12-13, 16, 18, 21, 23, 25, 27, 32, 34-36 entry H          line    51 file /home/hyesu/anaconda3/envs/respyte/share/psi4/basis/cc-pvdz-jkfit.gbs 
    atoms 2, 5, 9, 11, 14-15, 19-20, 22, 24, 26, 28-29, 33        entry C          line   121 file /home/hyesu/anaconda3/envs/respyte/share/psi4/basis/cc-pvdz-jkfit.gbs 
    atoms 6, 30                                                   entry O          line   221 file /home/hyesu/anaconda3/envs/respyte/share/psi4/basis/cc-pvdz-jkfit.gbs 
    atoms 7, 17, 31                                               entry N          line   171 file /home/hyesu/anaconda3/envs/respyte/share/psi4/basis/cc-pvdz-jkfit.gbs 

  ==> Pre-Iterations <==

   -------------------------------------------------------
    Irrep   Nso     Nmo     Nalpha   Nbeta   Ndocc  Nsocc
   -------------------------------------------------------
     A        319     319       0       0       0       0
   -------------------------------------------------------
    Total     319     319      69      69      69       0
   -------------------------------------------------------

  ==> Integral Setup <==

  ==> DiskDFJK: Density-Fitted J/K Matrices <==

    J tasked:                  Yes
    K tasked:                  Yes
    wK tasked:                  No
    OpenMP threads:              1
    Integrals threads:           1
    Memory (MB):              8583
    Algorithm:                Core
    Integral Cache:           NONE
    Schwarz Cutoff:          1E-12
    Fitting Condition:       1E-12

   => Auxiliary Basis Set <=

  Basis Set: (6-31G* AUX)
    Blend: CC-PVDZ-JKFIT
    Number of shells: 609
    Number of basis function: 1964
    Number of Cartesian functions: 1964
    Spherical Harmonics?: false
    Max angular momentum: 3

  Minimum eigenvalue in the overlap matrix is 3.4672158947E-04.
  Using Symmetric Orthogonalization.

  SCF Guess: Superposition of Atomic Densities via on-the-fly atomic UHF.

  ==> Iterations <==

                           Total Energy        Delta E     RMS |[F,P]|

   @DF-RHF iter   0:  -862.36959601771503   -8.62370e+02   2.63690e-02 
   @DF-RHF iter   1:  -852.57041757787783    9.79918e+00   2.92949e-03 
   @DF-RHF iter   2:  -853.00772276325870   -4.37305e-01   1.82192e-03 DIIS
   @DF-RHF iter   3:  -853.14389988494645   -1.36177e-01   5.13164e-04 DIIS
   @DF-RHF iter   4:  -853.16475302989500   -2.08531e-02   1.38249e-04 DIIS
   @DF-RHF iter   5:  -853.16662338305935   -1.87035e-03   4.86371e-05 DIIS
   @DF-RHF iter   6:  -853.16693274484487   -3.09362e-04   1.81213e-05 DIIS
   @DF-RHF iter   7:  -853.16697217162471   -3.94268e-05   6.22026e-06 DIIS
   @DF-RHF iter   8:  -853.16697617575153   -4.00413e-06   2.39270e-06 DIIS
   @DF-RHF iter   9:  -853.16697689271450   -7.16963e-07   1.03081e-06 DIIS
   @DF-RHF iter  10:  -853.16697703744444   -1.44730e-07   3.74414e-07 DIIS

  ==> Post-Iterations <==

    Orbital Energies [Eh]
    ---------------------

    Doubly Occupied:                                                      

       1A    -20.535676     2A    -20.512409     3A    -15.604675  
       4A    -15.592313     5A    -15.571290     6A    -11.356939  
       7A    -11.335631     8A    -11.279116     9A    -11.265645  
      10A    -11.263916    11A    -11.246622    12A    -11.240350  
      13A    -11.232193    14A    -11.231768    15A    -11.229996  
      16A    -11.224224    17A    -11.221543    18A    -11.220600  
      19A    -11.219938    20A     -1.403739    21A     -1.381612  
      22A     -1.302249    23A     -1.248354    24A     -1.217069  
      25A     -1.136395    26A     -1.086302    27A     -1.041349  
      28A     -1.004578    29A     -0.997527    30A     -0.979634  
      31A     -0.948007    32A     -0.882535    33A     -0.845645  
      34A     -0.811028    35A     -0.803355    36A     -0.775810  
      37A     -0.754864    38A     -0.728504    39A     -0.713108  
      40A     -0.697389    41A     -0.665794    42A     -0.655129  
      43A     -0.647198    44A     -0.639332    45A     -0.622274  
      46A     -0.613636    47A     -0.608684    48A     -0.600832  
      49A     -0.594789    50A     -0.590979    51A     -0.581747  
      52A     -0.573265    53A     -0.558602    54A     -0.556616  
      55A     -0.543258    56A     -0.530441    57A     -0.526834  
      58A     -0.520216    59A     -0.503481    60A     -0.496141  
      61A     -0.474501    62A     -0.468492    63A     -0.430829  
      64A     -0.420868    65A     -0.394417    66A     -0.378942  
      67A     -0.374103    68A     -0.301703    69A     -0.284355  

    Virtual:                                                              

      70A      0.128134    71A      0.168849    72A      0.190287  
      73A      0.196318    74A      0.221026    75A      0.226847  
      76A      0.230178    77A      0.246522    78A      0.253731  
      79A      0.264999    80A      0.272547    81A      0.292831  
      82A      0.295105    83A      0.300787    84A      0.304377  
      85A      0.316399    86A      0.325992    87A      0.329599  
      88A      0.337798    89A      0.340303    90A      0.348147  
      91A      0.369035    92A      0.373720    93A      0.391925  
      94A      0.397088    95A      0.418178    96A      0.428378  
      97A      0.442641    98A      0.448864    99A      0.457309  
     100A      0.474512   101A      0.485712   102A      0.503346  
     103A      0.515416   104A      0.528143   105A      0.541816  
     106A      0.562199   107A      0.584944   108A      0.588685  
     109A      0.654532   110A      0.669435   111A      0.681639  
     112A      0.714418   113A      0.720933   114A      0.736825  
     115A      0.742661   116A      0.753595   117A      0.762464  
     118A      0.763538   119A      0.770248   120A      0.777850  
     121A      0.779739   122A      0.798211   123A      0.803753  
     124A      0.818981   125A      0.822948   126A      0.830481  
     127A      0.834459   128A      0.836959   129A      0.847570  
     130A      0.862454   131A      0.869220   132A      0.876197  
     133A      0.884886   134A      0.896672   135A      0.902717  
     136A      0.920627   137A      0.927388   138A      0.940881  
     139A      0.955483   140A      0.966477   141A      0.977694  
     142A      0.983944   143A      1.010462   144A      1.023121  
     145A      1.027901   146A      1.037091   147A      1.057471  
     148A      1.074912   149A      1.086601   150A      1.088733  
     151A      1.092422   152A      1.097297   153A      1.112231  
     154A      1.114775   155A      1.124404   156A      1.132550  
     157A      1.140934   158A      1.149362   159A      1.153322  
     160A      1.164553   161A      1.173349   162A      1.176869  
     163A      1.186511   164A      1.188993   165A      1.190368  
     166A      1.197021   167A      1.212058   168A      1.218803  
     169A      1.220985   170A      1.231852   171A      1.234236  
     172A      1.239632   173A      1.256765   174A      1.264885  
     175A      1.271772   176A      1.281275   177A      1.296112  
     178A      1.311235   179A      1.340155   180A      1.365009  
     181A      1.377274   182A      1.393164   183A      1.405432  
     184A      1.417399   185A      1.424128   186A      1.452487  
     187A      1.471885   188A      1.492821   189A      1.501101  
     190A      1.547050   191A      1.554908   192A      1.563438  
     193A      1.586807   194A      1.592136   195A      1.604460  
     196A      1.612135   197A      1.641577   198A      1.648366  
     199A      1.679515   200A      1.686183   201A      1.696212  
     202A      1.713547   203A      1.722889   204A      1.742146  
     205A      1.761639   206A      1.774533   207A      1.785636  
     208A      1.791324   209A      1.797603   210A      1.825799  
     211A      1.828262   212A      1.870354   213A      1.888071  
     214A      1.928474   215A      1.957462   216A      2.001014  
     217A      2.028316   218A      2.037716   219A      2.067670  
     220A      2.085280   221A      2.104937   222A      2.122046  
     223A      2.129530   224A      2.139929   225A      2.143681  
     226A      2.148910   227A      2.169623   228A      2.191943  
     229A      2.199911   230A      2.212873   231A      2.225445  
     232A      2.231983   233A      2.253605   234A      2.261146  
     235A      2.271966   236A      2.302568   237A      2.306123  
     238A      2.313677   239A      2.329063   240A      2.343232  
     241A      2.359460   242A      2.369244   243A      2.381728  
     244A      2.399672   245A      2.412548   246A      2.422995  
     247A      2.446247   248A      2.467249   249A      2.488103  
     250A      2.494856   251A      2.511955   252A      2.530430  
     253A      2.541830   254A      2.568618   255A      2.584218  
     256A      2.587968   257A      2.594323   258A      2.598946  
     259A      2.615025   260A      2.642226   261A      2.662995  
     262A      2.696141   263A      2.709896   264A      2.721761  
     265A      2.733259   266A      2.742774   267A      2.772705  
     268A      2.778326   269A      2.800635   270A      2.823951  
     271A      2.842639   272A      2.867168   273A      2.896838  
     274A      2.913893   275A      2.931860   276A      2.939350  
     277A      2.951385   278A      2.991190   279A      3.012790  
     280A      3.038535   281A      3.043807   282A      3.062516  
     283A      3.080505   284A      3.095746   285A      3.116556  
     286A      3.130710   287A      3.152334   288A      3.193263  
     289A      3.242080   290A      3.265807   291A      3.304415  
     292A      3.350378   293A      3.377828   294A      3.387557  
     295A      3.422734   296A      3.521308   297A      3.555966  
     298A      3.594390   299A      3.650575   300A      3.865273  
     301A      4.411604   302A      4.452332   303A      4.458510  
     304A      4.486737   305A      4.532728   306A      4.551721  
     307A      4.564761   308A      4.611287   309A      4.656779  
     310A      4.669725   311A      4.726846   312A      4.736919  
     313A      4.794337   314A      4.839356   315A      4.860962  
     316A      4.959713   317A      5.002285   318A      5.115834  
     319A      5.249606  

    Final Occupation by Irrep:
              A 
    DOCC [    69 ]

  Energy converged.

  @DF-RHF Final Energy:  -853.16697703744444

   => Energetics <=

    Nuclear Repulsion Energy =           1430.8127617669038045
    One-Electron Energy =               -4005.3566854504647381
    Two-Electron Energy =                1721.3769466461164939
    Total Energy =                       -853.1669770374444397



Properties will be evaluated at   0.000000,   0.000000,   0.000000 [a0]

Properties computed using the HF density matrix

  Nuclear Dipole Moment: [e a0]
     X:    -4.8453      Y:     6.6707      Z:    11.8127

  Electronic Dipole Moment: [e a0]
     X:     5.8102      Y:    -4.3746      Z:   -11.5696

  Dipole Moment: [e a0]
     X:     0.9650      Y:     2.2962      Z:     0.2431     Total:     2.5025

  Dipole Moment: [D]
     X:     2.4527      Y:     5.8363      Z:     0.6178     Total:     6.3608


 Field computed on the grid and written to grid_field.dat

 Electrostatic potential computed on the grid and written to grid_esp.dat

*** tstop() called on sophon at Sun Nov 25 20:41:33 2018
Module time:
	user time   =     286.90 seconds =       4.78 minutes
	system time =       1.61 seconds =       0.03 minutes
	total time  =        288 seconds =       4.80 minutes
Total time:
	user time   =     286.90 seconds =       4.78 minutes
	system time =       1.61 seconds =       0.03 minutes
	total time  =        288 seconds =       4.80 minutes

    Psi4 stopped on: Sunday, 25 November 2018 08:41PM
    Psi4 wall time for execution: 0:04:48.57

*** Psi4 exiting successfully. Buy a developer a beer!
