
    -----------------------------------------------------------------------
          Psi4: An Open-Source Ab Initio Electronic Structure Package
                               Psi4 1.2.1 release

                         Git: Rev {HEAD} 406f4de 


    R. M. Parrish, L. A. Burns, D. G. A. Smith, A. C. Simmonett,
    A. E. DePrince III, E. G. Hohenstein, U. Bozkaya, A. Yu. Sokolov,
    R. Di Remigio, R. M. Richard, J. F. Gonthier, A. M. James,
    H. R. McAlexander, A. Kumar, M. Saitow, X. Wang, B. P. Pritchard,
    P. Verma, H. F. Schaefer III, K. Patkowski, R. A. King, E. F. Valeev,
    F. A. Evangelista, J. M. Turney, T. D. Crawford, and C. D. Sherrill,
    J. Chem. Theory Comput. 13(7) pp 3185--3197 (2017).
    (doi: 10.1021/acs.jctc.7b00174)


                         Additional Contributions by
    P. Kraus, H. Kruse, M. H. Lechner, M. C. Schieber, and R. A. Shaw

    -----------------------------------------------------------------------


    Psi4 started on: Sunday, 25 November 2018 08:50PM

    Process ID: 26692
    Host:       sophon
    PSIDATADIR: /home/hyesu/anaconda3/envs/respyte/share/psi4
    Memory:     500.0 MiB
    Threads:    1
    
  ==> Input File <==

--------------------------------------------------------------------------
memory 12 gb
molecule meoh {
noreorient
nocom
0 1
H     1.1770     2.3160     1.4310
C     0.8730     1.3780     1.8870
H    -0.2100     1.3600     1.9180
H     1.2650     1.3390     2.8920
C     1.4490     0.2100     1.1130
O     2.3590    -0.4410     1.5490
N     0.8940    -0.0830    -0.0970
C     1.5400    -1.0880    -0.9470
H     1.5190    -2.0600    -0.4730
H     2.5800    -0.8250    -1.1000
C     0.7390    -1.0270    -2.2470
H    -0.1140    -1.6960    -2.2000
H     1.3340    -1.3110    -3.1070
C     0.2680     0.4280    -2.3010
H    -0.5820     0.5980    -2.9470
H     1.0780     1.0700    -2.6300
C    -0.0540     0.7470    -0.8300
H     0.0900     1.7990    -0.6280
C    -1.5330     0.4750    -0.5330
O    -2.3640     1.2120    -0.9940
N    -1.8200    -0.6050     0.2130
H    -1.0640    -1.1230     0.5960
C    -3.1740    -0.9620     0.5780
H    -3.2670    -2.0400     0.6110
H    -3.4490    -0.5570     1.5460
H    -3.8510    -0.5690    -0.1650
}
set {
basis 6-31g*
}
E,wfn = prop('HF' , properties = ['GRID_ESP', 'GRID_FIELD'], return_wfn=True)
--------------------------------------------------------------------------

  Memory set to  11.176 GiB by Python driver.

*** tstart() called on sophon
*** at Sun Nov 25 20:50:44 2018

   => Loading Basis Set <=

    Name: 6-31G*
    Role: ORBITAL
    Keyword: BASIS
    atoms 1, 3-4, 9-10, 12-13, 15-16, 18, 22, 24-26 entry H          line    44 file /home/hyesu/anaconda3/envs/respyte/share/psi4/basis/6-31gs.gbs 
    atoms 2, 5, 8, 11, 14, 17, 19, 23               entry C          line   111 file /home/hyesu/anaconda3/envs/respyte/share/psi4/basis/6-31gs.gbs 
    atoms 6, 20                                     entry O          line   145 file /home/hyesu/anaconda3/envs/respyte/share/psi4/basis/6-31gs.gbs 
    atoms 7, 21                                     entry N          line   128 file /home/hyesu/anaconda3/envs/respyte/share/psi4/basis/6-31gs.gbs 


         ---------------------------------------------------------
                                   SCF
            by Justin Turney, Rob Parrish, Andy Simmonett
                             and Daniel Smith
                              RHF Reference
                        1 Threads,  11444 MiB Core
         ---------------------------------------------------------

  ==> Geometry <==

    Molecular point group: c1
    Full point group: C1

    Geometry (in Angstrom), charge = 0, multiplicity = 1:

       Center              X                  Y                   Z               Mass       
    ------------   -----------------  -----------------  -----------------  -----------------
         H            1.177000000000     2.316000000000     1.431000000000     1.007825032070
         C            0.873000000000     1.378000000000     1.887000000000    12.000000000000
         H           -0.210000000000     1.360000000000     1.918000000000     1.007825032070
         H            1.265000000000     1.339000000000     2.892000000000     1.007825032070
         C            1.449000000000     0.210000000000     1.113000000000    12.000000000000
         O            2.359000000000    -0.441000000000     1.549000000000    15.994914619560
         N            0.894000000000    -0.083000000000    -0.097000000000    14.003074004780
         C            1.540000000000    -1.088000000000    -0.947000000000    12.000000000000
         H            1.519000000000    -2.060000000000    -0.473000000000     1.007825032070
         H            2.580000000000    -0.825000000000    -1.100000000000     1.007825032070
         C            0.739000000000    -1.027000000000    -2.247000000000    12.000000000000
         H           -0.114000000000    -1.696000000000    -2.200000000000     1.007825032070
         H            1.334000000000    -1.311000000000    -3.107000000000     1.007825032070
         C            0.268000000000     0.428000000000    -2.301000000000    12.000000000000
         H           -0.582000000000     0.598000000000    -2.947000000000     1.007825032070
         H            1.078000000000     1.070000000000    -2.630000000000     1.007825032070
         C           -0.054000000000     0.747000000000    -0.830000000000    12.000000000000
         H            0.090000000000     1.799000000000    -0.628000000000     1.007825032070
         C           -1.533000000000     0.475000000000    -0.533000000000    12.000000000000
         O           -2.364000000000     1.212000000000    -0.994000000000    15.994914619560
         N           -1.820000000000    -0.605000000000     0.213000000000    14.003074004780
         H           -1.064000000000    -1.123000000000     0.596000000000     1.007825032070
         C           -3.174000000000    -0.962000000000     0.578000000000    12.000000000000
         H           -3.267000000000    -2.040000000000     0.611000000000     1.007825032070
         H           -3.449000000000    -0.557000000000     1.546000000000     1.007825032070
         H           -3.851000000000    -0.569000000000    -0.165000000000     1.007825032070

  Running in c1 symmetry.

  Rotational constants: A =      0.03928  B =      0.02569  C =      0.02037 [cm^-1]
  Rotational constants: A =   1177.51446  B =    770.25219  C =    610.61588 [MHz]
  Nuclear repulsion =  765.805878358498035

  Charge       = 0
  Multiplicity = 1
  Electrons    = 92
  Nalpha       = 46
  Nbeta        = 46

  ==> Algorithm <==

  SCF Algorithm Type is DF.
  DIIS enabled.
  MOM disabled.
  Fractional occupation disabled.
  Guess Type is SAD.
  Energy threshold   = 1.00e-06
  Density threshold  = 1.00e-06
  Integral threshold = 0.00e+00

  ==> Primary Basis <==

  Basis Set: 6-31G*
    Blend: 6-31G*
    Number of shells: 100
    Number of basis function: 208
    Number of Cartesian functions: 208
    Spherical Harmonics?: false
    Max angular momentum: 2

   => Loading Basis Set <=

    Name: (6-31G* AUX)
    Role: JKFIT
    Keyword: DF_BASIS_SCF
    atoms 1, 3-4, 9-10, 12-13, 15-16, 18, 22, 24-26 entry H          line    51 file /home/hyesu/anaconda3/envs/respyte/share/psi4/basis/cc-pvdz-jkfit.gbs 
    atoms 2, 5, 8, 11, 14, 17, 19, 23               entry C          line   121 file /home/hyesu/anaconda3/envs/respyte/share/psi4/basis/cc-pvdz-jkfit.gbs 
    atoms 6, 20                                     entry O          line   221 file /home/hyesu/anaconda3/envs/respyte/share/psi4/basis/cc-pvdz-jkfit.gbs 
    atoms 7, 21                                     entry N          line   171 file /home/hyesu/anaconda3/envs/respyte/share/psi4/basis/cc-pvdz-jkfit.gbs 

  ==> Pre-Iterations <==

   -------------------------------------------------------
    Irrep   Nso     Nmo     Nalpha   Nbeta   Ndocc  Nsocc
   -------------------------------------------------------
     A        208     208       0       0       0       0
   -------------------------------------------------------
    Total     208     208      46      46      46       0
   -------------------------------------------------------

  ==> Integral Setup <==

  ==> DiskDFJK: Density-Fitted J/K Matrices <==

    J tasked:                  Yes
    K tasked:                  Yes
    wK tasked:                  No
    OpenMP threads:              1
    Integrals threads:           1
    Memory (MB):              8583
    Algorithm:                Core
    Integral Cache:           NONE
    Schwarz Cutoff:          1E-12
    Fitting Condition:       1E-12

   => Auxiliary Basis Set <=

  Basis Set: (6-31G* AUX)
    Blend: CC-PVDZ-JKFIT
    Number of shells: 414
    Number of basis function: 1322
    Number of Cartesian functions: 1322
    Spherical Harmonics?: false
    Max angular momentum: 3

  Minimum eigenvalue in the overlap matrix is 1.7289856795E-03.
  Using Symmetric Orthogonalization.

  SCF Guess: Superposition of Atomic Densities via on-the-fly atomic UHF.

  ==> Iterations <==

                           Total Energy        Delta E     RMS |[F,P]|

   @DF-RHF iter   0:  -575.11556253503227   -5.75116e+02   3.13178e-02 
   @DF-RHF iter   1:  -569.41285330235291    5.70271e+00   3.36766e-03 
   @DF-RHF iter   2:  -569.67435694833557   -2.61504e-01   2.00931e-03 DIIS
   @DF-RHF iter   3:  -569.74353371119821   -6.91768e-02   5.88594e-04 DIIS
   @DF-RHF iter   4:  -569.75557749606162   -1.20438e-02   1.80062e-04 DIIS
   @DF-RHF iter   5:  -569.75683005945075   -1.25256e-03   6.82039e-05 DIIS
   @DF-RHF iter   6:  -569.75712403251532   -2.93973e-04   3.15360e-05 DIIS
   @DF-RHF iter   7:  -569.75718685033394   -6.28178e-05   1.28342e-05 DIIS
   @DF-RHF iter   8:  -569.75719835942789   -1.15091e-05   4.65873e-06 DIIS
   @DF-RHF iter   9:  -569.75720014717956   -1.78775e-06   1.81696e-06 DIIS
   @DF-RHF iter  10:  -569.75720035696236   -2.09783e-07   7.37969e-07 DIIS

  ==> Post-Iterations <==

    Orbital Energies [Eh]
    ---------------------

    Doubly Occupied:                                                      

       1A    -20.527444     2A    -20.523362     3A    -15.593054  
       4A    -15.591863     5A    -11.351705     6A    -11.347541  
       7A    -11.286266     8A    -11.265127     9A    -11.261716  
      10A    -11.241091    11A    -11.237054    12A    -11.235826  
      13A     -1.398595    14A     -1.392521    15A     -1.271786  
      16A     -1.235115    17A     -1.084248    18A     -1.033383  
      19A     -1.001723    20A     -0.960276    21A     -0.882139  
      22A     -0.827485    23A     -0.797401    24A     -0.774407  
      25A     -0.723673    26A     -0.688636    27A     -0.659550  
      28A     -0.652150    29A     -0.634092    30A     -0.628070  
      31A     -0.613048    32A     -0.598784    33A     -0.593357  
      34A     -0.568998    35A     -0.562751    36A     -0.559334  
      37A     -0.555348    38A     -0.538067    39A     -0.515327  
      40A     -0.503944    41A     -0.492174    42A     -0.487590  
      43A     -0.434742    44A     -0.420641    45A     -0.393288  
      46A     -0.372958  

    Virtual:                                                              

      47A      0.184225    48A      0.192416    49A      0.205181  
      50A      0.237440    51A      0.253114    52A      0.269647  
      53A      0.278386    54A      0.295006    55A      0.302040  
      56A      0.308409    57A      0.311340    58A      0.322880  
      59A      0.324825    60A      0.337588    61A      0.338231  
      62A      0.350547    63A      0.352934    64A      0.366619  
      65A      0.380232    66A      0.402110    67A      0.416102  
      68A      0.419108    69A      0.462332    70A      0.505077  
      71A      0.516241    72A      0.527463    73A      0.590634  
      74A      0.647577    75A      0.694241    76A      0.706085  
      77A      0.716519    78A      0.728573    79A      0.744615  
      80A      0.752093    81A      0.758581    82A      0.773714  
      83A      0.790472    84A      0.839233    85A      0.856515  
      86A      0.865735    87A      0.887225    88A      0.894905  
      89A      0.915598    90A      0.925839    91A      0.940862  
      92A      0.955534    93A      0.980704    94A      0.994623  
      95A      0.999717    96A      1.016438    97A      1.036287  
      98A      1.054099    99A      1.077913   100A      1.079810  
     101A      1.100847   102A      1.112999   103A      1.123106  
     104A      1.128195   105A      1.133735   106A      1.140303  
     107A      1.146942   108A      1.162954   109A      1.186319  
     110A      1.191783   111A      1.196147   112A      1.210078  
     113A      1.216282   114A      1.221023   115A      1.232674  
     116A      1.251056   117A      1.264433   118A      1.274994  
     119A      1.297794   120A      1.319570   121A      1.344516  
     122A      1.373948   123A      1.388359   124A      1.407169  
     125A      1.472269   126A      1.483723   127A      1.545943  
     128A      1.572853   129A      1.614340   130A      1.640180  
     131A      1.662410   132A      1.685437   133A      1.719997  
     134A      1.739529   135A      1.764717   136A      1.796035  
     137A      1.844228   138A      1.884945   139A      1.921513  
     140A      1.943926   141A      1.988181   142A      2.024912  
     143A      2.055782   144A      2.075350   145A      2.097024  
     146A      2.105172   147A      2.115528   148A      2.125099  
     149A      2.153437   150A      2.160484   151A      2.174610  
     152A      2.197640   153A      2.218062   154A      2.223689  
     155A      2.247767   156A      2.282541   157A      2.297974  
     158A      2.316549   159A      2.335369   160A      2.372676  
     161A      2.389122   162A      2.409670   163A      2.423381  
     164A      2.453608   165A      2.465810   166A      2.471293  
     167A      2.521979   168A      2.543277   169A      2.572892  
     170A      2.596881   171A      2.610064   172A      2.628899  
     173A      2.658770   174A      2.694678   175A      2.721950  
     176A      2.736210   177A      2.751093   178A      2.804452  
     179A      2.817415   180A      2.856111   181A      2.876347  
     182A      2.918209   183A      2.927761   184A      2.986238  
     185A      3.025406   186A      3.033981   187A      3.060872  
     188A      3.085658   189A      3.133728   190A      3.173106  
     191A      3.297017   192A      3.368703   193A      3.398728  
     194A      3.418782   195A      3.559946   196A      3.616534  
     197A      4.374700   198A      4.470050   199A      4.516267  
     200A      4.583983   201A      4.645969   202A      4.650760  
     203A      4.704957   204A      4.739547   205A      4.888642  
     206A      4.941423   207A      5.038243   208A      5.179439  

    Final Occupation by Irrep:
              A 
    DOCC [    46 ]

  Energy converged.

  @DF-RHF Final Energy:  -569.75720035696236

   => Energetics <=

    Nuclear Repulsion Energy =            765.8058783584980347
    One-Electron Energy =               -2296.4906397492604810
    Two-Electron Energy =                 960.9275610338002025
    Total Energy =                       -569.7572003569623575



Properties will be evaluated at   0.000000,   0.000000,   0.000000 [a0]

Properties computed using the HF density matrix

  Nuclear Dipole Moment: [e a0]
     X:   -17.7030      Y:     1.1697      Z:   -35.3076

  Electronic Dipole Moment: [e a0]
     X:    17.5196      Y:    -1.5947      Z:    35.0265

  Dipole Moment: [e a0]
     X:    -0.1834      Y:    -0.4249      Z:    -0.2812     Total:     0.5415

  Dipole Moment: [D]
     X:    -0.4661      Y:    -1.0800      Z:    -0.7147     Total:     1.3764


 Field computed on the grid and written to grid_field.dat

 Electrostatic potential computed on the grid and written to grid_esp.dat

*** tstop() called on sophon at Sun Nov 25 20:52:11 2018
Module time:
	user time   =      86.59 seconds =       1.44 minutes
	system time =       0.55 seconds =       0.01 minutes
	total time  =         87 seconds =       1.45 minutes
Total time:
	user time   =      86.59 seconds =       1.44 minutes
	system time =       0.55 seconds =       0.01 minutes
	total time  =         87 seconds =       1.45 minutes

    Psi4 stopped on: Sunday, 25 November 2018 08:52PM
    Psi4 wall time for execution: 0:01:27.16

*** Psi4 exiting successfully. Buy a developer a beer!
