
    -----------------------------------------------------------------------
          Psi4: An Open-Source Ab Initio Electronic Structure Package
                               Psi4 1.2.1 release

                         Git: Rev {HEAD} 406f4de 


    R. M. Parrish, L. A. Burns, D. G. A. Smith, A. C. Simmonett,
    A. E. DePrince III, E. G. Hohenstein, U. Bozkaya, A. Yu. Sokolov,
    R. Di Remigio, R. M. Richard, J. F. Gonthier, A. M. James,
    H. R. McAlexander, A. Kumar, M. Saitow, X. Wang, B. P. Pritchard,
    P. Verma, H. F. Schaefer III, K. Patkowski, R. A. King, E. F. Valeev,
    F. A. Evangelista, J. M. Turney, T. D. Crawford, and C. D. Sherrill,
    J. Chem. Theory Comput. 13(7) pp 3185--3197 (2017).
    (doi: 10.1021/acs.jctc.7b00174)


                         Additional Contributions by
    P. Kraus, H. Kruse, M. H. Lechner, M. C. Schieber, and R. A. Shaw

    -----------------------------------------------------------------------


    Psi4 started on: Sunday, 25 November 2018 08:56PM

    Process ID: 26817
    Host:       sophon
    PSIDATADIR: /home/hyesu/anaconda3/envs/respyte/share/psi4
    Memory:     500.0 MiB
    Threads:    1
    
  ==> Input File <==

--------------------------------------------------------------------------
memory 12 gb
molecule meoh {
noreorient
nocom
0 1
H     3.4360    -1.0620    -1.6110
C     3.2840    -0.7610    -0.5820
H     3.8930     0.1100    -0.3730
H     3.6060    -1.5790     0.0500
C     1.7980    -0.5520    -0.3640
O     1.0400    -1.4660    -0.5760
N     1.4550     0.6780     0.0600
H     2.2240     1.2970     0.1770
C     0.1990     1.3550     0.4020
H     0.1230     2.2310    -0.2300
H     0.2960     1.7180     1.4170
C    -1.2180     0.7660     0.3680
O    -2.0770     1.5450     0.7010
N    -1.4610    -0.4870     0.0030
H    -0.6980    -1.0740    -0.2630
C    -2.8150    -0.9960    -0.0130
H    -2.7850    -2.0280    -0.3360
H    -3.4360    -0.4290    -0.6950
H    -3.2610    -0.9470     0.9720
}
set {
basis 6-31g*
}
E,wfn = prop('HF' , properties = ['GRID_ESP', 'GRID_FIELD'], return_wfn=True)
--------------------------------------------------------------------------

  Memory set to  11.176 GiB by Python driver.

*** tstart() called on sophon
*** at Sun Nov 25 20:56:22 2018

   => Loading Basis Set <=

    Name: 6-31G*
    Role: ORBITAL
    Keyword: BASIS
    atoms 1, 3-4, 8, 10-11, 15, 17-19 entry H          line    44 file /home/hyesu/anaconda3/envs/respyte/share/psi4/basis/6-31gs.gbs 
    atoms 2, 5, 9, 12, 16             entry C          line   111 file /home/hyesu/anaconda3/envs/respyte/share/psi4/basis/6-31gs.gbs 
    atoms 6, 13                       entry O          line   145 file /home/hyesu/anaconda3/envs/respyte/share/psi4/basis/6-31gs.gbs 
    atoms 7, 14                       entry N          line   128 file /home/hyesu/anaconda3/envs/respyte/share/psi4/basis/6-31gs.gbs 


         ---------------------------------------------------------
                                   SCF
            by Justin Turney, Rob Parrish, Andy Simmonett
                             and Daniel Smith
                              RHF Reference
                        1 Threads,  11444 MiB Core
         ---------------------------------------------------------

  ==> Geometry <==

    Molecular point group: c1
    Full point group: C1

    Geometry (in Angstrom), charge = 0, multiplicity = 1:

       Center              X                  Y                   Z               Mass       
    ------------   -----------------  -----------------  -----------------  -----------------
         H            3.436000000000    -1.062000000000    -1.611000000000     1.007825032070
         C            3.284000000000    -0.761000000000    -0.582000000000    12.000000000000
         H            3.893000000000     0.110000000000    -0.373000000000     1.007825032070
         H            3.606000000000    -1.579000000000     0.050000000000     1.007825032070
         C            1.798000000000    -0.552000000000    -0.364000000000    12.000000000000
         O            1.040000000000    -1.466000000000    -0.576000000000    15.994914619560
         N            1.455000000000     0.678000000000     0.060000000000    14.003074004780
         H            2.224000000000     1.297000000000     0.177000000000     1.007825032070
         C            0.199000000000     1.355000000000     0.402000000000    12.000000000000
         H            0.123000000000     2.231000000000    -0.230000000000     1.007825032070
         H            0.296000000000     1.718000000000     1.417000000000     1.007825032070
         C           -1.218000000000     0.766000000000     0.368000000000    12.000000000000
         O           -2.077000000000     1.545000000000     0.701000000000    15.994914619560
         N           -1.461000000000    -0.487000000000     0.003000000000    14.003074004780
         H           -0.698000000000    -1.074000000000    -0.263000000000     1.007825032070
         C           -2.815000000000    -0.996000000000    -0.013000000000    12.000000000000
         H           -2.785000000000    -2.028000000000    -0.336000000000     1.007825032070
         H           -3.436000000000    -0.429000000000    -0.695000000000     1.007825032070
         H           -3.261000000000    -0.947000000000     0.972000000000     1.007825032070

  Running in c1 symmetry.

  Rotational constants: A =      0.10618  B =      0.03168  C =      0.02473 [cm^-1]
  Rotational constants: A =   3183.27364  B =    949.74968  C =    741.38741 [MHz]
  Nuclear repulsion =  462.943433304272503

  Charge       = 0
  Multiplicity = 1
  Electrons    = 70
  Nalpha       = 35
  Nbeta        = 35

  ==> Algorithm <==

  SCF Algorithm Type is DF.
  DIIS enabled.
  MOM disabled.
  Fractional occupation disabled.
  Guess Type is SAD.
  Energy threshold   = 1.00e-06
  Density threshold  = 1.00e-06
  Integral threshold = 0.00e+00

  ==> Primary Basis <==

  Basis Set: 6-31G*
    Blend: 6-31G*
    Number of shells: 74
    Number of basis function: 155
    Number of Cartesian functions: 155
    Spherical Harmonics?: false
    Max angular momentum: 2

   => Loading Basis Set <=

    Name: (6-31G* AUX)
    Role: JKFIT
    Keyword: DF_BASIS_SCF
    atoms 1, 3-4, 8, 10-11, 15, 17-19 entry H          line    51 file /home/hyesu/anaconda3/envs/respyte/share/psi4/basis/cc-pvdz-jkfit.gbs 
    atoms 2, 5, 9, 12, 16             entry C          line   121 file /home/hyesu/anaconda3/envs/respyte/share/psi4/basis/cc-pvdz-jkfit.gbs 
    atoms 6, 13                       entry O          line   221 file /home/hyesu/anaconda3/envs/respyte/share/psi4/basis/cc-pvdz-jkfit.gbs 
    atoms 7, 14                       entry N          line   171 file /home/hyesu/anaconda3/envs/respyte/share/psi4/basis/cc-pvdz-jkfit.gbs 

  ==> Pre-Iterations <==

   -------------------------------------------------------
    Irrep   Nso     Nmo     Nalpha   Nbeta   Ndocc  Nsocc
   -------------------------------------------------------
     A        155     155       0       0       0       0
   -------------------------------------------------------
    Total     155     155      35      35      35       0
   -------------------------------------------------------

  ==> Integral Setup <==

  ==> DiskDFJK: Density-Fitted J/K Matrices <==

    J tasked:                  Yes
    K tasked:                  Yes
    wK tasked:                  No
    OpenMP threads:              1
    Integrals threads:           1
    Memory (MB):              8583
    Algorithm:                Core
    Integral Cache:           NONE
    Schwarz Cutoff:          1E-12
    Fitting Condition:       1E-12

   => Auxiliary Basis Set <=

  Basis Set: (6-31G* AUX)
    Blend: CC-PVDZ-JKFIT
    Number of shells: 306
    Number of basis function: 979
    Number of Cartesian functions: 979
    Spherical Harmonics?: false
    Max angular momentum: 3

  Minimum eigenvalue in the overlap matrix is 2.4170575626E-03.
  Using Symmetric Orthogonalization.

  SCF Guess: Superposition of Atomic Densities via on-the-fly atomic UHF.

  ==> Iterations <==

                           Total Energy        Delta E     RMS |[F,P]|

   @DF-RHF iter   0:  -458.14821787658769   -4.58148e+02   3.79551e-02 
   @DF-RHF iter   1:  -453.50770269546643    4.64052e+00   4.59425e-03 
   @DF-RHF iter   2:  -453.71219927542961   -2.04497e-01   3.10980e-03 DIIS
   @DF-RHF iter   3:  -453.79929500463686   -8.70957e-02   5.98468e-04 DIIS
   @DF-RHF iter   4:  -453.80641252212462   -7.11752e-03   1.93148e-04 DIIS
   @DF-RHF iter   5:  -453.80728953415462   -8.77012e-04   7.17565e-05 DIIS
   @DF-RHF iter   6:  -453.80745165929886   -1.62125e-04   2.90153e-05 DIIS
   @DF-RHF iter   7:  -453.80747902005822   -2.73608e-05   1.01579e-05 DIIS
   @DF-RHF iter   8:  -453.80748340400834   -4.38395e-06   3.57530e-06 DIIS
   @DF-RHF iter   9:  -453.80748400928911   -6.05281e-07   1.35738e-06 DIIS
   @DF-RHF iter  10:  -453.80748407034150   -6.10524e-08   6.21450e-07 DIIS

  ==> Post-Iterations <==

    Orbital Energies [Eh]
    ---------------------

    Doubly Occupied:                                                      

       1A    -20.540122     2A    -20.507380     3A    -15.611235  
       4A    -15.564982     5A    -11.372368     6A    -11.343352  
       7A    -11.286535     8A    -11.246282     9A    -11.244460  
      10A     -1.409157    11A     -1.380312    12A     -1.256165  
      13A     -1.219684    14A     -1.041241    15A     -0.983088  
      16A     -0.934637    17A     -0.820898    18A     -0.775218  
      19A     -0.715433    20A     -0.706804    21A     -0.665329  
      22A     -0.642614    23A     -0.623503    24A     -0.620553  
      25A     -0.601248    26A     -0.597429    27A     -0.569038  
      28A     -0.557858    29A     -0.538601    30A     -0.535906  
      31A     -0.505295    32A     -0.435700    33A     -0.411587  
      34A     -0.407994    35A     -0.374088  

    Virtual:                                                              

      36A      0.189825    37A      0.196455    38A      0.209694  
      39A      0.252548    40A      0.268854    41A      0.275840  
      42A      0.308169    43A      0.319803    44A      0.324139  
      45A      0.331354    46A      0.347557    47A      0.361958  
      48A      0.367963    49A      0.401931    50A      0.418353  
      51A      0.452532    52A      0.491591    53A      0.535583  
      54A      0.642043    55A      0.680063    56A      0.701318  
      57A      0.719065    58A      0.744164    59A      0.751882  
      60A      0.766228    61A      0.771788    62A      0.799382  
      63A      0.819603    64A      0.835008    65A      0.843434  
      66A      0.918212    67A      0.920839    68A      0.960886  
      69A      0.976717    70A      0.998934    71A      1.013803  
      72A      1.053535    73A      1.057713    74A      1.060838  
      75A      1.104867    76A      1.116360    77A      1.120588  
      78A      1.150065    79A      1.151687    80A      1.168856  
      81A      1.171491    82A      1.185335    83A      1.204174  
      84A      1.212252    85A      1.226179    86A      1.235707  
      87A      1.258755    88A      1.316854    89A      1.331838  
      90A      1.380718    91A      1.393902    92A      1.418938  
      93A      1.482947    94A      1.515145    95A      1.564106  
      96A      1.570188    97A      1.621835    98A      1.637046  
      99A      1.666289   100A      1.669740   101A      1.729823  
     102A      1.748738   103A      1.799389   104A      1.811075  
     105A      1.963176   106A      2.022944   107A      2.047143  
     108A      2.072983   109A      2.087985   110A      2.110817  
     111A      2.152134   112A      2.161648   113A      2.172091  
     114A      2.182748   115A      2.206254   116A      2.211750  
     117A      2.291906   118A      2.334880   119A      2.360897  
     120A      2.371834   121A      2.397225   122A      2.409584  
     123A      2.439411   124A      2.546295   125A      2.553686  
     126A      2.560994   127A      2.622719   128A      2.627892  
     129A      2.633988   130A      2.688044   131A      2.722488  
     132A      2.733437   133A      2.780144   134A      2.808090  
     135A      2.868711   136A      2.958293   137A      3.038421  
     138A      3.039892   139A      3.068590   140A      3.115536  
     141A      3.228927   142A      3.309247   143A      3.378594  
     144A      3.412969   145A      3.578775   146A      3.637750  
     147A      4.361524   148A      4.455137   149A      4.502464  
     150A      4.542684   151A      4.625588   152A      4.676194  
     153A      4.733659   154A      4.912619   155A      5.041255  

    Final Occupation by Irrep:
              A 
    DOCC [    35 ]

  Energy converged.

  @DF-RHF Final Energy:  -453.80748407034150

   => Energetics <=

    Nuclear Repulsion Energy =            462.9434333042725029
    One-Electron Energy =               -1537.4095903918932891
    Two-Electron Energy =                 620.6586730172792841
    Total Energy =                       -453.8074840703415020



Properties will be evaluated at   0.000000,   0.000000,   0.000000 [a0]

Properties computed using the HF density matrix

  Nuclear Dipole Moment: [e a0]
     X:     4.8150      Y:    -1.7423      Z:    -1.1055

  Electronic Dipole Moment: [e a0]
     X:    -2.9564      Y:     1.7915      Z:     0.9333

  Dipole Moment: [e a0]
     X:     1.8586      Y:     0.0492      Z:    -0.1722     Total:     1.8672

  Dipole Moment: [D]
     X:     4.7241      Y:     0.1251      Z:    -0.4376     Total:     4.7460


 Field computed on the grid and written to grid_field.dat

 Electrostatic potential computed on the grid and written to grid_esp.dat

*** tstop() called on sophon at Sun Nov 25 20:57:03 2018
Module time:
	user time   =      39.99 seconds =       0.67 minutes
	system time =       0.24 seconds =       0.00 minutes
	total time  =         41 seconds =       0.68 minutes
Total time:
	user time   =      39.99 seconds =       0.67 minutes
	system time =       0.24 seconds =       0.00 minutes
	total time  =         41 seconds =       0.68 minutes

    Psi4 stopped on: Sunday, 25 November 2018 08:57PM
    Psi4 wall time for execution: 0:00:40.25

*** Psi4 exiting successfully. Buy a developer a beer!
