
    -----------------------------------------------------------------------
          Psi4: An Open-Source Ab Initio Electronic Structure Package
                               Psi4 1.2.1 release

                         Git: Rev {HEAD} 406f4de 


    R. M. Parrish, L. A. Burns, D. G. A. Smith, A. C. Simmonett,
    A. E. DePrince III, E. G. Hohenstein, U. Bozkaya, A. Yu. Sokolov,
    R. Di Remigio, R. M. Richard, J. F. Gonthier, A. M. James,
    H. R. McAlexander, A. Kumar, M. Saitow, X. Wang, B. P. Pritchard,
    P. Verma, H. F. Schaefer III, K. Patkowski, R. A. King, E. F. Valeev,
    F. A. Evangelista, J. M. Turney, T. D. Crawford, and C. D. Sherrill,
    J. Chem. Theory Comput. 13(7) pp 3185--3197 (2017).
    (doi: 10.1021/acs.jctc.7b00174)


                         Additional Contributions by
    P. Kraus, H. Kruse, M. H. Lechner, M. C. Schieber, and R. A. Shaw

    -----------------------------------------------------------------------


    Psi4 started on: Sunday, 25 November 2018 08:49PM

    Process ID: 26662
    Host:       sophon
    PSIDATADIR: /home/hyesu/anaconda3/envs/respyte/share/psi4
    Memory:     500.0 MiB
    Threads:    1
    
  ==> Input File <==

--------------------------------------------------------------------------
memory 12 gb
molecule meoh {
noreorient
nocom
0 1
H     3.1100     0.5520     2.2130
C     2.7730    -0.0700     1.3980
H     2.6060    -1.0790     1.7600
H     3.5440    -0.1140     0.6370
C     1.4960     0.5250     0.8480
O     1.0330     1.5410     1.3140
N     0.9000    -0.1300    -0.1720
C     1.4550    -1.2900    -0.8730
H     1.5800    -2.1320    -0.2030
H     2.4250    -1.0500    -1.2980
C     0.4300    -1.5700    -1.9750
H    -0.3420    -2.2350    -1.6110
H     0.8900    -2.0220    -2.8460
C    -0.1740    -0.1940    -2.2570
H    -1.1390    -0.2490    -2.7380
H     0.4950     0.3930    -2.8800
C    -0.2550     0.4480    -0.8720
H    -0.1460     1.5230    -0.9030
C    -1.5670     0.1040    -0.1470
O    -2.3210    -0.7380    -0.5630
N    -1.8040     0.8240     0.9610
H    -1.0610     1.3900     1.3110
C    -2.9440     0.5470     1.8060
H    -2.8440    -0.4010     2.3250
H    -3.0320     1.3390     2.5370
H    -3.8460     0.5140     1.2120
}
set {
basis 6-31g*
}
E,wfn = prop('HF' , properties = ['GRID_ESP', 'GRID_FIELD'], return_wfn=True)
--------------------------------------------------------------------------

  Memory set to  11.176 GiB by Python driver.

*** tstart() called on sophon
*** at Sun Nov 25 20:49:17 2018

   => Loading Basis Set <=

    Name: 6-31G*
    Role: ORBITAL
    Keyword: BASIS
    atoms 1, 3-4, 9-10, 12-13, 15-16, 18, 22, 24-26 entry H          line    44 file /home/hyesu/anaconda3/envs/respyte/share/psi4/basis/6-31gs.gbs 
    atoms 2, 5, 8, 11, 14, 17, 19, 23               entry C          line   111 file /home/hyesu/anaconda3/envs/respyte/share/psi4/basis/6-31gs.gbs 
    atoms 6, 20                                     entry O          line   145 file /home/hyesu/anaconda3/envs/respyte/share/psi4/basis/6-31gs.gbs 
    atoms 7, 21                                     entry N          line   128 file /home/hyesu/anaconda3/envs/respyte/share/psi4/basis/6-31gs.gbs 


         ---------------------------------------------------------
                                   SCF
            by Justin Turney, Rob Parrish, Andy Simmonett
                             and Daniel Smith
                              RHF Reference
                        1 Threads,  11444 MiB Core
         ---------------------------------------------------------

  ==> Geometry <==

    Molecular point group: c1
    Full point group: C1

    Geometry (in Angstrom), charge = 0, multiplicity = 1:

       Center              X                  Y                   Z               Mass       
    ------------   -----------------  -----------------  -----------------  -----------------
         H            3.110000000000     0.552000000000     2.213000000000     1.007825032070
         C            2.773000000000    -0.070000000000     1.398000000000    12.000000000000
         H            2.606000000000    -1.079000000000     1.760000000000     1.007825032070
         H            3.544000000000    -0.114000000000     0.637000000000     1.007825032070
         C            1.496000000000     0.525000000000     0.848000000000    12.000000000000
         O            1.033000000000     1.541000000000     1.314000000000    15.994914619560
         N            0.900000000000    -0.130000000000    -0.172000000000    14.003074004780
         C            1.455000000000    -1.290000000000    -0.873000000000    12.000000000000
         H            1.580000000000    -2.132000000000    -0.203000000000     1.007825032070
         H            2.425000000000    -1.050000000000    -1.298000000000     1.007825032070
         C            0.430000000000    -1.570000000000    -1.975000000000    12.000000000000
         H           -0.342000000000    -2.235000000000    -1.611000000000     1.007825032070
         H            0.890000000000    -2.022000000000    -2.846000000000     1.007825032070
         C           -0.174000000000    -0.194000000000    -2.257000000000    12.000000000000
         H           -1.139000000000    -0.249000000000    -2.738000000000     1.007825032070
         H            0.495000000000     0.393000000000    -2.880000000000     1.007825032070
         C           -0.255000000000     0.448000000000    -0.872000000000    12.000000000000
         H           -0.146000000000     1.523000000000    -0.903000000000     1.007825032070
         C           -1.567000000000     0.104000000000    -0.147000000000    12.000000000000
         O           -2.321000000000    -0.738000000000    -0.563000000000    15.994914619560
         N           -1.804000000000     0.824000000000     0.961000000000    14.003074004780
         H           -1.061000000000     1.390000000000     1.311000000000     1.007825032070
         C           -2.944000000000     0.547000000000     1.806000000000    12.000000000000
         H           -2.844000000000    -0.401000000000     2.325000000000     1.007825032070
         H           -3.032000000000     1.339000000000     2.537000000000     1.007825032070
         H           -3.846000000000     0.514000000000     1.212000000000     1.007825032070

  Running in c1 symmetry.

  Rotational constants: A =      0.03915  B =      0.02886  C =      0.01901 [cm^-1]
  Rotational constants: A =   1173.78104  B =    865.27021  C =    569.82990 [MHz]
  Nuclear repulsion =  767.354697524711241

  Charge       = 0
  Multiplicity = 1
  Electrons    = 92
  Nalpha       = 46
  Nbeta        = 46

  ==> Algorithm <==

  SCF Algorithm Type is DF.
  DIIS enabled.
  MOM disabled.
  Fractional occupation disabled.
  Guess Type is SAD.
  Energy threshold   = 1.00e-06
  Density threshold  = 1.00e-06
  Integral threshold = 0.00e+00

  ==> Primary Basis <==

  Basis Set: 6-31G*
    Blend: 6-31G*
    Number of shells: 100
    Number of basis function: 208
    Number of Cartesian functions: 208
    Spherical Harmonics?: false
    Max angular momentum: 2

   => Loading Basis Set <=

    Name: (6-31G* AUX)
    Role: JKFIT
    Keyword: DF_BASIS_SCF
    atoms 1, 3-4, 9-10, 12-13, 15-16, 18, 22, 24-26 entry H          line    51 file /home/hyesu/anaconda3/envs/respyte/share/psi4/basis/cc-pvdz-jkfit.gbs 
    atoms 2, 5, 8, 11, 14, 17, 19, 23               entry C          line   121 file /home/hyesu/anaconda3/envs/respyte/share/psi4/basis/cc-pvdz-jkfit.gbs 
    atoms 6, 20                                     entry O          line   221 file /home/hyesu/anaconda3/envs/respyte/share/psi4/basis/cc-pvdz-jkfit.gbs 
    atoms 7, 21                                     entry N          line   171 file /home/hyesu/anaconda3/envs/respyte/share/psi4/basis/cc-pvdz-jkfit.gbs 

  ==> Pre-Iterations <==

   -------------------------------------------------------
    Irrep   Nso     Nmo     Nalpha   Nbeta   Ndocc  Nsocc
   -------------------------------------------------------
     A        208     208       0       0       0       0
   -------------------------------------------------------
    Total     208     208      46      46      46       0
   -------------------------------------------------------

  ==> Integral Setup <==

  ==> DiskDFJK: Density-Fitted J/K Matrices <==

    J tasked:                  Yes
    K tasked:                  Yes
    wK tasked:                  No
    OpenMP threads:              1
    Integrals threads:           1
    Memory (MB):              8583
    Algorithm:                Core
    Integral Cache:           NONE
    Schwarz Cutoff:          1E-12
    Fitting Condition:       1E-12

   => Auxiliary Basis Set <=

  Basis Set: (6-31G* AUX)
    Blend: CC-PVDZ-JKFIT
    Number of shells: 414
    Number of basis function: 1322
    Number of Cartesian functions: 1322
    Spherical Harmonics?: false
    Max angular momentum: 3

  Minimum eigenvalue in the overlap matrix is 2.1195218399E-03.
  Using Symmetric Orthogonalization.

  SCF Guess: Superposition of Atomic Densities via on-the-fly atomic UHF.

  ==> Iterations <==

                           Total Energy        Delta E     RMS |[F,P]|

   @DF-RHF iter   0:  -574.91386912154894   -5.74914e+02   3.11604e-02 
   @DF-RHF iter   1:  -569.42067116887097    5.49320e+00   3.42812e-03 
   @DF-RHF iter   2:  -569.67987184454739   -2.59201e-01   2.02715e-03 DIIS
   @DF-RHF iter   3:  -569.75011333377927   -7.02415e-02   5.97665e-04 DIIS
   @DF-RHF iter   4:  -569.76120597993361   -1.10926e-02   1.50661e-04 DIIS
   @DF-RHF iter   5:  -569.76201371688899   -8.07737e-04   5.23608e-05 DIIS
   @DF-RHF iter   6:  -569.76215897974350   -1.45263e-04   2.12661e-05 DIIS
   @DF-RHF iter   7:  -569.76218400360210   -2.50239e-05   8.89938e-06 DIIS
   @DF-RHF iter   8:  -569.76218801951575   -4.01591e-06   3.14642e-06 DIIS
   @DF-RHF iter   9:  -569.76218871628635   -6.96771e-07   1.33315e-06 DIIS
   @DF-RHF iter  10:  -569.76218881635793   -1.00072e-07   4.64677e-07 DIIS

  ==> Post-Iterations <==

    Orbital Energies [Eh]
    ---------------------

    Doubly Occupied:                                                      

       1A    -20.531322     2A    -20.515391     3A    -15.595907  
       4A    -15.567127     5A    -11.356603     6A    -11.333857  
       7A    -11.274516     8A    -11.274057     9A    -11.246010  
      10A    -11.237890    11A    -11.229496    12A    -11.227900  
      13A     -1.399676    14A     -1.381239    15A     -1.267844  
      16A     -1.219265    17A     -1.081838    18A     -1.030446  
      19A     -0.998412    20A     -0.948042    21A     -0.879013  
      22A     -0.821697    23A     -0.784360    24A     -0.757785  
      25A     -0.719026    26A     -0.691962    27A     -0.654821  
      28A     -0.643497    29A     -0.635902    30A     -0.616567  
      31A     -0.610134    32A     -0.591007    33A     -0.588986  
      34A     -0.569383    35A     -0.560196    36A     -0.548065  
      37A     -0.540378    38A     -0.520737    39A     -0.515469  
      40A     -0.499978    41A     -0.492144    42A     -0.487429  
      43A     -0.427028    44A     -0.422877    45A     -0.377067  
      46A     -0.369109  

    Virtual:                                                              

      47A      0.185103    48A      0.209450    49A      0.214257  
      50A      0.245884    51A      0.257234    52A      0.268113  
      53A      0.287625    54A      0.293612    55A      0.304919  
      56A      0.313018    57A      0.318013    58A      0.327075  
      59A      0.334117    60A      0.345346    61A      0.350990  
      62A      0.357581    63A      0.371565    64A      0.400164  
      65A      0.402842    66A      0.413293    67A      0.419675  
      68A      0.441041    69A      0.464854    70A      0.503455  
      71A      0.520656    72A      0.542027    73A      0.584114  
      74A      0.632928    75A      0.695377    76A      0.700878  
      77A      0.716440    78A      0.734683    79A      0.747441  
      80A      0.751816    81A      0.767579    82A      0.773012  
      83A      0.799232    84A      0.818071    85A      0.856160  
      86A      0.861555    87A      0.896905    88A      0.909875  
      89A      0.920811    90A      0.930031    91A      0.943646  
      92A      0.962091    93A      0.983225    94A      0.999689  
      95A      1.010864    96A      1.021142    97A      1.048173  
      98A      1.053906    99A      1.082961   100A      1.094657  
     101A      1.101962   102A      1.113923   103A      1.132705  
     104A      1.143017   105A      1.147749   106A      1.154042  
     107A      1.159643   108A      1.179050   109A      1.182494  
     110A      1.185058   111A      1.190944   112A      1.198420  
     113A      1.225504   114A      1.227480   115A      1.238063  
     116A      1.242792   117A      1.262127   118A      1.305719  
     119A      1.321650   120A      1.344457   121A      1.382349  
     122A      1.399321   123A      1.441033   124A      1.460501  
     125A      1.485757   126A      1.511432   127A      1.554772  
     128A      1.597934   129A      1.643183   130A      1.651485  
     131A      1.679425   132A      1.691055   133A      1.729198  
     134A      1.746384   135A      1.761446   136A      1.831011  
     137A      1.849212   138A      1.885527   139A      1.923642  
     140A      1.963750   141A      1.974843   142A      2.011040  
     143A      2.022317   144A      2.072522   145A      2.099217  
     146A      2.105203   147A      2.128925   148A      2.141272  
     149A      2.161447   150A      2.179430   151A      2.198065  
     152A      2.210784   153A      2.218989   154A      2.245295  
     155A      2.256758   156A      2.276076   157A      2.295539  
     158A      2.333912   159A      2.371189   160A      2.375973  
     161A      2.392314   162A      2.416931   163A      2.425649  
     164A      2.472690   165A      2.476037   166A      2.504909  
     167A      2.522255   168A      2.528294   169A      2.570583  
     170A      2.594501   171A      2.610982   172A      2.627467  
     173A      2.661908   174A      2.693926   175A      2.723595  
     176A      2.745785   177A      2.783181   178A      2.808577  
     179A      2.858700   180A      2.880761   181A      2.896139  
     182A      2.921402   183A      2.936449   184A      2.966521  
     185A      2.989247   186A      3.036236   187A      3.063202  
     188A      3.115220   189A      3.124575   190A      3.209653  
     191A      3.306972   192A      3.374000   193A      3.407557  
     194A      3.423684   195A      3.567049   196A      3.608359  
     197A      4.410120   198A      4.438658   199A      4.489450  
     200A      4.612938   201A      4.645121   202A      4.678112  
     203A      4.723111   204A      4.781397   205A      4.898622  
     206A      4.987559   207A      5.030014   208A      5.126257  

    Final Occupation by Irrep:
              A 
    DOCC [    46 ]

  Energy converged.

  @DF-RHF Final Energy:  -569.76218881635793

   => Energetics <=

    Nuclear Repulsion Energy =            767.3546975247112414
    One-Electron Energy =               -2300.1509850371680841
    Two-Electron Energy =                 963.0340986960987948
    Total Energy =                       -569.7621888163579342



Properties will be evaluated at   0.000000,   0.000000,   0.000000 [a0]

Properties computed using the HF density matrix

  Nuclear Dipole Moment: [e a0]
     X:   -13.4322      Y:    -2.4359      Z:    -2.6173

  Electronic Dipole Moment: [e a0]
     X:    14.6834      Y:     2.0773      Z:     2.4838

  Dipole Moment: [e a0]
     X:     1.2512      Y:    -0.3585      Z:    -0.1335     Total:     1.3084

  Dipole Moment: [D]
     X:     3.1803      Y:    -0.9113      Z:    -0.3393     Total:     3.3256


 Field computed on the grid and written to grid_field.dat

 Electrostatic potential computed on the grid and written to grid_esp.dat

*** tstop() called on sophon at Sun Nov 25 20:50:43 2018
Module time:
	user time   =      85.92 seconds =       1.43 minutes
	system time =       0.55 seconds =       0.01 minutes
	total time  =         86 seconds =       1.43 minutes
Total time:
	user time   =      85.92 seconds =       1.43 minutes
	system time =       0.55 seconds =       0.01 minutes
	total time  =         86 seconds =       1.43 minutes

    Psi4 stopped on: Sunday, 25 November 2018 08:50PM
    Psi4 wall time for execution: 0:01:26.51

*** Psi4 exiting successfully. Buy a developer a beer!
