
    -----------------------------------------------------------------------
          Psi4: An Open-Source Ab Initio Electronic Structure Package
                               Psi4 1.2.1 release

                         Git: Rev {HEAD} 406f4de 


    R. M. Parrish, L. A. Burns, D. G. A. Smith, A. C. Simmonett,
    A. E. DePrince III, E. G. Hohenstein, U. Bozkaya, A. Yu. Sokolov,
    R. Di Remigio, R. M. Richard, J. F. Gonthier, A. M. James,
    H. R. McAlexander, A. Kumar, M. Saitow, X. Wang, B. P. Pritchard,
    P. Verma, H. F. Schaefer III, K. Patkowski, R. A. King, E. F. Valeev,
    F. A. Evangelista, J. M. Turney, T. D. Crawford, and C. D. Sherrill,
    J. Chem. Theory Comput. 13(7) pp 3185--3197 (2017).
    (doi: 10.1021/acs.jctc.7b00174)


                         Additional Contributions by
    P. Kraus, H. Kruse, M. H. Lechner, M. C. Schieber, and R. A. Shaw

    -----------------------------------------------------------------------


    Psi4 started on: Sunday, 25 November 2018 09:01PM

    Process ID: 26923
    Host:       sophon
    PSIDATADIR: /home/hyesu/anaconda3/envs/respyte/share/psi4
    Memory:     500.0 MiB
    Threads:    1
    
  ==> Input File <==

--------------------------------------------------------------------------
memory 12 gb
molecule meoh {
noreorient
nocom
-1 1
H     2.9600    -1.6450    -1.9570
C     2.8490    -0.8890    -1.1920
H     3.1330     0.0780    -1.5970
H     3.5050    -1.1090    -0.3570
C     1.3990    -0.8270    -0.7550
O     0.5260    -1.3580    -1.3980
N     1.1930    -0.1550     0.3960
H     1.9070     0.5040     0.6320
C    -0.1100     0.3960     0.7560
H    -0.0250     0.6700     1.8000
C    -0.4040     1.6820    -0.0310
H    -0.4900     1.4450    -1.0900
H    -1.3710     2.0610     0.2900
S     0.9020     2.9440     0.2220
C    -1.1720    -0.7140     0.7580
O    -1.1630    -1.5750     1.5980
N    -2.1680    -0.6210    -0.1620
H    -1.9290    -0.1150    -0.9840
C    -3.0490    -1.7480    -0.3510
H    -3.8260    -1.4710    -1.0550
H    -2.5230    -2.6200    -0.7300
H    -3.5100    -2.0120     0.5900
}
set {
basis 6-31g*
}
E,wfn = prop('HF' , properties = ['GRID_ESP', 'GRID_FIELD'], return_wfn=True)
--------------------------------------------------------------------------

  Memory set to  11.176 GiB by Python driver.

*** tstart() called on sophon
*** at Sun Nov 25 21:01:02 2018

   => Loading Basis Set <=

    Name: 6-31G*
    Role: ORBITAL
    Keyword: BASIS
    atoms 1, 3-4, 8, 10, 12-13, 18, 20-22 entry H          line    44 file /home/hyesu/anaconda3/envs/respyte/share/psi4/basis/6-31gs.gbs 
    atoms 2, 5, 9, 11, 15, 19             entry C          line   111 file /home/hyesu/anaconda3/envs/respyte/share/psi4/basis/6-31gs.gbs 
    atoms 6, 16                           entry O          line   145 file /home/hyesu/anaconda3/envs/respyte/share/psi4/basis/6-31gs.gbs 
    atoms 7, 17                           entry N          line   128 file /home/hyesu/anaconda3/envs/respyte/share/psi4/basis/6-31gs.gbs 
    atoms 14                              entry S          line   316 file /home/hyesu/anaconda3/envs/respyte/share/psi4/basis/6-31gs.gbs 


         ---------------------------------------------------------
                                   SCF
            by Justin Turney, Rob Parrish, Andy Simmonett
                             and Daniel Smith
                              RHF Reference
                        1 Threads,  11444 MiB Core
         ---------------------------------------------------------

  ==> Geometry <==

    Molecular point group: c1
    Full point group: C1

    Geometry (in Angstrom), charge = -1, multiplicity = 1:

       Center              X                  Y                   Z               Mass       
    ------------   -----------------  -----------------  -----------------  -----------------
         H            2.960000000000    -1.645000000000    -1.957000000000     1.007825032070
         C            2.849000000000    -0.889000000000    -1.192000000000    12.000000000000
         H            3.133000000000     0.078000000000    -1.597000000000     1.007825032070
         H            3.505000000000    -1.109000000000    -0.357000000000     1.007825032070
         C            1.399000000000    -0.827000000000    -0.755000000000    12.000000000000
         O            0.526000000000    -1.358000000000    -1.398000000000    15.994914619560
         N            1.193000000000    -0.155000000000     0.396000000000    14.003074004780
         H            1.907000000000     0.504000000000     0.632000000000     1.007825032070
         C           -0.110000000000     0.396000000000     0.756000000000    12.000000000000
         H           -0.025000000000     0.670000000000     1.800000000000     1.007825032070
         C           -0.404000000000     1.682000000000    -0.031000000000    12.000000000000
         H           -0.490000000000     1.445000000000    -1.090000000000     1.007825032070
         H           -1.371000000000     2.061000000000     0.290000000000     1.007825032070
         S            0.902000000000     2.944000000000     0.222000000000    31.972070999000
         C           -1.172000000000    -0.714000000000     0.758000000000    12.000000000000
         O           -1.163000000000    -1.575000000000     1.598000000000    15.994914619560
         N           -2.168000000000    -0.621000000000    -0.162000000000    14.003074004780
         H           -1.929000000000    -0.115000000000    -0.984000000000     1.007825032070
         C           -3.049000000000    -1.748000000000    -0.351000000000    12.000000000000
         H           -3.826000000000    -1.471000000000    -1.055000000000     1.007825032070
         H           -2.523000000000    -2.620000000000    -0.730000000000     1.007825032070
         H           -3.510000000000    -2.012000000000     0.590000000000     1.007825032070

  Running in c1 symmetry.

  Rotational constants: A =      0.03766  B =      0.02366  C =      0.01736 [cm^-1]
  Rotational constants: A =   1129.06046  B =    709.20062  C =    520.53777 [MHz]
  Nuclear repulsion =  731.950051510989510

  Charge       = -1
  Multiplicity = 1
  Electrons    = 94
  Nalpha       = 47
  Nbeta        = 47

  ==> Algorithm <==

  SCF Algorithm Type is DF.
  DIIS enabled.
  MOM disabled.
  Fractional occupation disabled.
  Guess Type is SAD.
  Energy threshold   = 1.00e-06
  Density threshold  = 1.00e-06
  Integral threshold = 0.00e+00

  ==> Primary Basis <==

  Basis Set: 6-31G*
    Blend: 6-31G*
    Number of shells: 90
    Number of basis function: 191
    Number of Cartesian functions: 191
    Spherical Harmonics?: false
    Max angular momentum: 2

   => Loading Basis Set <=

    Name: (6-31G* AUX)
    Role: JKFIT
    Keyword: DF_BASIS_SCF
    atoms 1, 3-4, 8, 10, 12-13, 18, 20-22 entry H          line    51 file /home/hyesu/anaconda3/envs/respyte/share/psi4/basis/cc-pvdz-jkfit.gbs 
    atoms 2, 5, 9, 11, 15, 19             entry C          line   121 file /home/hyesu/anaconda3/envs/respyte/share/psi4/basis/cc-pvdz-jkfit.gbs 
    atoms 6, 16                           entry O          line   221 file /home/hyesu/anaconda3/envs/respyte/share/psi4/basis/cc-pvdz-jkfit.gbs 
    atoms 7, 17                           entry N          line   171 file /home/hyesu/anaconda3/envs/respyte/share/psi4/basis/cc-pvdz-jkfit.gbs 
    atoms 14                              entry S          line   593 file /home/hyesu/anaconda3/envs/respyte/share/psi4/basis/cc-pvdz-jkfit.gbs 

  ==> Pre-Iterations <==

   -------------------------------------------------------
    Irrep   Nso     Nmo     Nalpha   Nbeta   Ndocc  Nsocc
   -------------------------------------------------------
     A        191     191       0       0       0       0
   -------------------------------------------------------
    Total     191     191      47      47      47       0
   -------------------------------------------------------

  ==> Integral Setup <==

  ==> DiskDFJK: Density-Fitted J/K Matrices <==

    J tasked:                  Yes
    K tasked:                  Yes
    wK tasked:                  No
    OpenMP threads:              1
    Integrals threads:           1
    Memory (MB):              8583
    Algorithm:                Core
    Integral Cache:           NONE
    Schwarz Cutoff:          1E-12
    Fitting Condition:       1E-12

   => Auxiliary Basis Set <=

  Basis Set: (6-31G* AUX)
    Blend: CC-PVDZ-JKFIT
    Number of shells: 375
    Number of basis function: 1215
    Number of Cartesian functions: 1215
    Spherical Harmonics?: false
    Max angular momentum: 3

  Minimum eigenvalue in the overlap matrix is 2.1809372475E-03.
  Using Symmetric Orthogonalization.

  SCF Guess: Superposition of Atomic Densities via on-the-fly atomic UHF.

  ==> Iterations <==

                           Total Energy        Delta E     RMS |[F,P]|

   @DF-RHF iter   0:  -900.31982666480133   -9.00320e+02   3.21562e-02 
   @DF-RHF iter   1:  -889.37382842771831    1.09460e+01   4.37594e-03 
   @DF-RHF iter   2:  -889.66418013075304   -2.90352e-01   2.90023e-03 DIIS
   @DF-RHF iter   3:  -889.78774543852307   -1.23565e-01   6.01919e-04 DIIS
   @DF-RHF iter   4:  -889.79786878769653   -1.01233e-02   2.14010e-04 DIIS
   @DF-RHF iter   5:  -889.79941626989341   -1.54748e-03   6.62815e-05 DIIS
   @DF-RHF iter   6:  -889.79969272694552   -2.76457e-04   2.76225e-05 DIIS
   @DF-RHF iter   7:  -889.79973320913098   -4.04822e-05   1.30650e-05 DIIS
   @DF-RHF iter   8:  -889.79974154321053   -8.33408e-06   4.25520e-06 DIIS
   @DF-RHF iter   9:  -889.79974271996196   -1.17675e-06   1.50670e-06 DIIS
   @DF-RHF iter  10:  -889.79974288293192   -1.62970e-07   5.86964e-07 DIIS

  ==> Post-Iterations <==

    Orbital Energies [Eh]
    ---------------------

    Doubly Occupied:                                                      

       1A    -91.669741     2A    -20.405270     3A    -20.396660  
       4A    -15.454373     5A    -15.445005     6A    -11.226823  
       7A    -11.215412     8A    -11.145601     9A    -11.130545  
      10A    -11.119652    11A    -11.080377    12A     -8.677074  
      13A     -6.360889    14A     -6.357726    15A     -6.357532  
      16A     -1.271469    17A     -1.260768    18A     -1.108276  
      19A     -1.102979    20A     -0.918924    21A     -0.868606  
      22A     -0.829759    23A     -0.756228    24A     -0.674760  
      25A     -0.648225    26A     -0.599033    27A     -0.576250  
      28A     -0.560551    29A     -0.525426    30A     -0.512002  
      31A     -0.503595    32A     -0.498943    33A     -0.467334  
      34A     -0.453353    35A     -0.447142    36A     -0.433253  
      37A     -0.424104    38A     -0.401016    39A     -0.384453  
      40A     -0.367003    41A     -0.307514    42A     -0.300283  
      43A     -0.270416    44A     -0.259345    45A     -0.241720  
      46A     -0.110948    47A     -0.106133  

    Virtual:                                                              

      48A      0.318631    49A      0.324626    50A      0.348962  
      51A      0.361387    52A      0.378867    53A      0.404386  
      54A      0.412153    55A      0.419567    56A      0.433452  
      57A      0.443441    58A      0.447794    59A      0.450385  
      60A      0.462318    61A      0.487441    62A      0.503686  
      63A      0.518641    64A      0.558697    65A      0.580139  
      66A      0.608234    67A      0.633435    68A      0.643542  
      69A      0.719659    70A      0.729841    71A      0.756604  
      72A      0.794903    73A      0.797744    74A      0.824172  
      75A      0.856987    76A      0.859954    77A      0.879868  
      78A      0.886598    79A      0.891985    80A      0.923091  
      81A      0.936390    82A      0.951053    83A      0.969613  
      84A      0.988903    85A      1.037486    86A      1.046524  
      87A      1.060776    88A      1.067083    89A      1.080031  
      90A      1.110648    91A      1.128152    92A      1.135088  
      93A      1.147872    94A      1.175451    95A      1.181247  
      96A      1.211642    97A      1.247181    98A      1.252519  
      99A      1.264686   100A      1.278260   101A      1.296323  
     102A      1.307102   103A      1.316256   104A      1.321883  
     105A      1.328033   106A      1.331641   107A      1.340258  
     108A      1.347698   109A      1.354810   110A      1.368523  
     111A      1.402434   112A      1.405910   113A      1.427589  
     114A      1.452882   115A      1.470675   116A      1.483254  
     117A      1.499633   118A      1.541820   119A      1.551358  
     120A      1.565296   121A      1.595280   122A      1.641962  
     123A      1.668957   124A      1.728798   125A      1.751700  
     126A      1.798974   127A      1.821183   128A      1.832825  
     129A      1.849383   130A      1.870948   131A      1.971380  
     132A      2.011224   133A      2.030130   134A      2.073290  
     135A      2.113157   136A      2.174049   137A      2.197305  
     138A      2.225018   139A      2.237827   140A      2.264825  
     141A      2.288886   142A      2.305837   143A      2.325700  
     144A      2.338788   145A      2.362388   146A      2.387062  
     147A      2.423529   148A      2.432538   149A      2.442855  
     150A      2.473092   151A      2.511229   152A      2.521987  
     153A      2.565460   154A      2.609986   155A      2.637987  
     156A      2.675792   157A      2.686853   158A      2.694964  
     159A      2.745897   160A      2.765406   161A      2.770300  
     162A      2.841043   163A      2.849362   164A      2.871119  
     165A      2.913903   166A      2.951522   167A      2.956830  
     168A      3.002584   169A      3.062270   170A      3.121285  
     171A      3.155292   172A      3.175516   173A      3.215861  
     174A      3.231182   175A      3.404785   176A      3.467977  
     177A      3.500157   178A      3.524431   179A      3.649579  
     180A      3.685970   181A      4.496649   182A      4.558750  
     183A      4.608381   184A      4.610337   185A      4.719116  
     186A      4.769576   187A      4.795861   188A      4.896527  
     189A      4.972684   190A      5.018234   191A      5.283016  

    Final Occupation by Irrep:
              A 
    DOCC [    47 ]

  Energy converged.

  @DF-RHF Final Energy:  -889.79974288293192

   => Energetics <=

    Nuclear Repulsion Energy =            731.9500515109895105
    One-Electron Energy =               -2691.0346509213172794
    Two-Electron Energy =                1069.2848565273959593
    Total Energy =                       -889.7997428829319233



Properties will be evaluated at   0.000000,   0.000000,   0.000000 [a0]

Properties computed using the HF density matrix

  Nuclear Dipole Moment: [e a0]
     X:    -4.8755      Y:     2.6343      Z:    -4.8339

  Electronic Dipole Moment: [e a0]
     X:     4.2524      Y:    -5.4483      Z:     3.9217

  Dipole Moment: [e a0]
     X:    -0.6230      Y:    -2.8140      Z:    -0.9122     Total:     3.0231

  Dipole Moment: [D]
     X:    -1.5836      Y:    -7.1526      Z:    -2.3185     Total:     7.6839


 Field computed on the grid and written to grid_field.dat

 Electrostatic potential computed on the grid and written to grid_esp.dat

*** tstop() called on sophon at Sun Nov 25 21:02:20 2018
Module time:
	user time   =      77.59 seconds =       1.29 minutes
	system time =       0.42 seconds =       0.01 minutes
	total time  =         78 seconds =       1.30 minutes
Total time:
	user time   =      77.59 seconds =       1.29 minutes
	system time =       0.42 seconds =       0.01 minutes
	total time  =         78 seconds =       1.30 minutes

    Psi4 stopped on: Sunday, 25 November 2018 09:02PM
    Psi4 wall time for execution: 0:01:18.03

*** Psi4 exiting successfully. Buy a developer a beer!
