
    -----------------------------------------------------------------------
          Psi4: An Open-Source Ab Initio Electronic Structure Package
                               Psi4 1.2.1 release

                         Git: Rev {HEAD} 406f4de 


    R. M. Parrish, L. A. Burns, D. G. A. Smith, A. C. Simmonett,
    A. E. DePrince III, E. G. Hohenstein, U. Bozkaya, A. Yu. Sokolov,
    R. Di Remigio, R. M. Richard, J. F. Gonthier, A. M. James,
    H. R. McAlexander, A. Kumar, M. Saitow, X. Wang, B. P. Pritchard,
    P. Verma, H. F. Schaefer III, K. Patkowski, R. A. King, E. F. Valeev,
    F. A. Evangelista, J. M. Turney, T. D. Crawford, and C. D. Sherrill,
    J. Chem. Theory Comput. 13(7) pp 3185--3197 (2017).
    (doi: 10.1021/acs.jctc.7b00174)


                         Additional Contributions by
    P. Kraus, H. Kruse, M. H. Lechner, M. C. Schieber, and R. A. Shaw

    -----------------------------------------------------------------------


    Psi4 started on: Sunday, 25 November 2018 08:17PM

    Process ID: 25972
    Host:       sophon
    PSIDATADIR: /home/hyesu/anaconda3/envs/respyte/share/psi4
    Memory:     500.0 MiB
    Threads:    1
    
  ==> Input File <==

--------------------------------------------------------------------------
memory 12 gb
molecule meoh {
noreorient
nocom
0 1
H    -3.6490    -0.4540     1.4760
C    -2.7800     0.1850     1.5310
H    -2.4270     0.2320     2.5560
H    -3.0560     1.1840     1.2140
C    -1.7240    -0.3340     0.5820
O    -1.9940    -1.0170    -0.3660
N    -0.4450     0.0320     0.8850
H    -0.3360     0.7150     1.6020
C     0.6470    -0.0860    -0.0660
H     0.2180    -0.3950    -1.0050
C     1.3950     1.2480    -0.2290
H     1.8700     1.4790     0.7240
H     2.2010     1.0830    -0.9320
C     0.5640     2.4690    -0.6520
H    -0.2860     2.6030     0.0070
H     1.2050     3.3340    -0.4980
C     0.0770     2.5190    -2.1090
H    -0.1270     3.5600    -2.3520
H     0.8790     2.2100    -2.7760
C    -1.1780     1.7120    -2.4500
H    -1.3870     1.8520    -3.5120
H    -1.0130     0.6540    -2.3110
N    -2.3060     2.0880    -1.6050
H    -3.0640     1.4480    -1.7450
H    -2.6420     3.0010    -1.8520
C     1.6550    -1.1870     0.2780
O     2.6290    -1.3400    -0.4120
N     1.3990    -1.9420     1.3610
H     0.5110    -1.8470     1.7930
C     2.2240    -3.0850     1.6870
H     1.9620    -3.4310     2.6780
H     2.0860    -3.8970     0.9820
H     3.2660    -2.7990     1.6770
}
set {
basis 6-31g*
}
E,wfn = prop('HF' , properties = ['GRID_ESP', 'GRID_FIELD'], return_wfn=True)
--------------------------------------------------------------------------

  Memory set to  11.176 GiB by Python driver.

*** tstart() called on sophon
*** at Sun Nov 25 20:17:26 2018

   => Loading Basis Set <=

    Name: 6-31G*
    Role: ORBITAL
    Keyword: BASIS
    atoms 1, 3-4, 8, 10, 12-13, 15-16, 18-19, 21-22, 24-25, 29, 31-33 entry H          line    44 file /home/hyesu/anaconda3/envs/respyte/share/psi4/basis/6-31gs.gbs 
    atoms 2, 5, 9, 11, 14, 17, 20, 26, 30                             entry C          line   111 file /home/hyesu/anaconda3/envs/respyte/share/psi4/basis/6-31gs.gbs 
    atoms 6, 27                                                       entry O          line   145 file /home/hyesu/anaconda3/envs/respyte/share/psi4/basis/6-31gs.gbs 
    atoms 7, 23, 28                                                   entry N          line   128 file /home/hyesu/anaconda3/envs/respyte/share/psi4/basis/6-31gs.gbs 


         ---------------------------------------------------------
                                   SCF
            by Justin Turney, Rob Parrish, Andy Simmonett
                             and Daniel Smith
                              RHF Reference
                        1 Threads,  11444 MiB Core
         ---------------------------------------------------------

  ==> Geometry <==

    Molecular point group: c1
    Full point group: C1

    Geometry (in Angstrom), charge = 0, multiplicity = 1:

       Center              X                  Y                   Z               Mass       
    ------------   -----------------  -----------------  -----------------  -----------------
         H           -3.649000000000    -0.454000000000     1.476000000000     1.007825032070
         C           -2.780000000000     0.185000000000     1.531000000000    12.000000000000
         H           -2.427000000000     0.232000000000     2.556000000000     1.007825032070
         H           -3.056000000000     1.184000000000     1.214000000000     1.007825032070
         C           -1.724000000000    -0.334000000000     0.582000000000    12.000000000000
         O           -1.994000000000    -1.017000000000    -0.366000000000    15.994914619560
         N           -0.445000000000     0.032000000000     0.885000000000    14.003074004780
         H           -0.336000000000     0.715000000000     1.602000000000     1.007825032070
         C            0.647000000000    -0.086000000000    -0.066000000000    12.000000000000
         H            0.218000000000    -0.395000000000    -1.005000000000     1.007825032070
         C            1.395000000000     1.248000000000    -0.229000000000    12.000000000000
         H            1.870000000000     1.479000000000     0.724000000000     1.007825032070
         H            2.201000000000     1.083000000000    -0.932000000000     1.007825032070
         C            0.564000000000     2.469000000000    -0.652000000000    12.000000000000
         H           -0.286000000000     2.603000000000     0.007000000000     1.007825032070
         H            1.205000000000     3.334000000000    -0.498000000000     1.007825032070
         C            0.077000000000     2.519000000000    -2.109000000000    12.000000000000
         H           -0.127000000000     3.560000000000    -2.352000000000     1.007825032070
         H            0.879000000000     2.210000000000    -2.776000000000     1.007825032070
         C           -1.178000000000     1.712000000000    -2.450000000000    12.000000000000
         H           -1.387000000000     1.852000000000    -3.512000000000     1.007825032070
         H           -1.013000000000     0.654000000000    -2.311000000000     1.007825032070
         N           -2.306000000000     2.088000000000    -1.605000000000    14.003074004780
         H           -3.064000000000     1.448000000000    -1.745000000000     1.007825032070
         H           -2.642000000000     3.001000000000    -1.852000000000     1.007825032070
         C            1.655000000000    -1.187000000000     0.278000000000    12.000000000000
         O            2.629000000000    -1.340000000000    -0.412000000000    15.994914619560
         N            1.399000000000    -1.942000000000     1.361000000000    14.003074004780
         H            0.511000000000    -1.847000000000     1.793000000000     1.007825032070
         C            2.224000000000    -3.085000000000     1.687000000000    12.000000000000
         H            1.962000000000    -3.431000000000     2.678000000000     1.007825032070
         H            2.086000000000    -3.897000000000     0.982000000000     1.007825032070
         H            3.266000000000    -2.799000000000     1.677000000000     1.007825032070

  Running in c1 symmetry.

  Rotational constants: A =      0.02989  B =      0.01521  C =      0.01163 [cm^-1]
  Rotational constants: A =    896.14299  B =    456.06577  C =    348.64131 [MHz]
  Nuclear repulsion =  985.702925711291527

  Charge       = 0
  Multiplicity = 1
  Electrons    = 110
  Nalpha       = 55
  Nbeta        = 55

  ==> Algorithm <==

  SCF Algorithm Type is DF.
  DIIS enabled.
  MOM disabled.
  Fractional occupation disabled.
  Guess Type is SAD.
  Energy threshold   = 1.00e-06
  Density threshold  = 1.00e-06
  Integral threshold = 0.00e+00

  ==> Primary Basis <==

  Basis Set: 6-31G*
    Blend: 6-31G*
    Number of shells: 122
    Number of basis function: 248
    Number of Cartesian functions: 248
    Spherical Harmonics?: false
    Max angular momentum: 2

   => Loading Basis Set <=

    Name: (6-31G* AUX)
    Role: JKFIT
    Keyword: DF_BASIS_SCF
    atoms 1, 3-4, 8, 10, 12-13, 15-16, 18-19, 21-22, 24-25, 29, 31-33 entry H          line    51 file /home/hyesu/anaconda3/envs/respyte/share/psi4/basis/cc-pvdz-jkfit.gbs 
    atoms 2, 5, 9, 11, 14, 17, 20, 26, 30                             entry C          line   121 file /home/hyesu/anaconda3/envs/respyte/share/psi4/basis/cc-pvdz-jkfit.gbs 
    atoms 6, 27                                                       entry O          line   221 file /home/hyesu/anaconda3/envs/respyte/share/psi4/basis/cc-pvdz-jkfit.gbs 
    atoms 7, 23, 28                                                   entry N          line   171 file /home/hyesu/anaconda3/envs/respyte/share/psi4/basis/cc-pvdz-jkfit.gbs 

  ==> Pre-Iterations <==

   -------------------------------------------------------
    Irrep   Nso     Nmo     Nalpha   Nbeta   Ndocc  Nsocc
   -------------------------------------------------------
     A        248     248       0       0       0       0
   -------------------------------------------------------
    Total     248     248      55      55      55       0
   -------------------------------------------------------

  ==> Integral Setup <==

  ==> DiskDFJK: Density-Fitted J/K Matrices <==

    J tasked:                  Yes
    K tasked:                  Yes
    wK tasked:                  No
    OpenMP threads:              1
    Integrals threads:           1
    Memory (MB):              8583
    Algorithm:                Core
    Integral Cache:           NONE
    Schwarz Cutoff:          1E-12
    Fitting Condition:       1E-12

   => Auxiliary Basis Set <=

  Basis Set: (6-31G* AUX)
    Blend: CC-PVDZ-JKFIT
    Number of shells: 507
    Number of basis function: 1609
    Number of Cartesian functions: 1609
    Spherical Harmonics?: false
    Max angular momentum: 3

  Minimum eigenvalue in the overlap matrix is 1.6756952804E-03.
  Using Symmetric Orthogonalization.

  SCF Guess: Superposition of Atomic Densities via on-the-fly atomic UHF.

  ==> Iterations <==

                           Total Energy        Delta E     RMS |[F,P]|

   @DF-RHF iter   0:  -670.70387000572157   -6.70704e+02   2.84661e-02 
   @DF-RHF iter   1:  -664.52872689299920    6.17514e+00   3.46386e-03 
   @DF-RHF iter   2:  -664.84290075944273   -3.14174e-01   2.23566e-03 DIIS
   @DF-RHF iter   3:  -664.96229480643842   -1.19394e-01   5.28466e-04 DIIS
   @DF-RHF iter   4:  -664.97512604383485   -1.28312e-02   1.58349e-04 DIIS
   @DF-RHF iter   5:  -664.97647585209916   -1.34981e-03   5.76097e-05 DIIS
   @DF-RHF iter   6:  -664.97679146868563   -3.15617e-04   2.36182e-05 DIIS
   @DF-RHF iter   7:  -664.97685175352660   -6.02848e-05   8.18795e-06 DIIS
   @DF-RHF iter   8:  -664.97685918516208   -7.43164e-06   2.91168e-06 DIIS
   @DF-RHF iter   9:  -664.97686022325217   -1.03809e-06   1.04298e-06 DIIS
   @DF-RHF iter  10:  -664.97686034625247   -1.23000e-07   4.58936e-07 DIIS

  ==> Post-Iterations <==

    Orbital Energies [Eh]
    ---------------------

    Doubly Occupied:                                                      

       1A    -20.528399     2A    -20.511409     3A    -15.590081  
       4A    -15.576613     5A    -15.539002     6A    -11.353737  
       7A    -11.334062     8A    -11.270967     9A    -11.251317  
      10A    -11.240093    11A    -11.233518    12A    -11.224816  
      13A    -11.216914    14A    -11.216076    15A     -1.397213  
      16A     -1.380970    17A     -1.247597    18A     -1.219443  
      19A     -1.180647    20A     -1.076509    21A     -1.027807  
      22A     -0.988378    23A     -0.959335    24A     -0.917074  
      25A     -0.843746    26A     -0.800046    27A     -0.782656  
      28A     -0.776928    29A     -0.718977    30A     -0.679878  
      31A     -0.676878    32A     -0.665044    33A     -0.630623  
      34A     -0.629401    35A     -0.617593    36A     -0.614929  
      37A     -0.605351    38A     -0.595080    39A     -0.584843  
      40A     -0.568984    41A     -0.562625    42A     -0.550566  
      43A     -0.546940    44A     -0.535443    45A     -0.521435  
      46A     -0.513266    47A     -0.496777    48A     -0.471929  
      49A     -0.462915    50A     -0.459521    51A     -0.433319  
      52A     -0.422361    53A     -0.386400    54A     -0.384335  
      55A     -0.376099  

    Virtual:                                                              

      56A      0.197129    57A      0.202037    58A      0.211883  
      59A      0.229400    60A      0.247202    61A      0.249725  
      62A      0.271362    63A      0.284795    64A      0.291130  
      65A      0.297931    66A      0.298431    67A      0.306217  
      68A      0.316504    69A      0.322506    70A      0.327395  
      71A      0.334966    72A      0.340682    73A      0.345492  
      74A      0.360963    75A      0.362733    76A      0.379179  
      77A      0.388243    78A      0.396849    79A      0.418951  
      80A      0.433003    81A      0.436270    82A      0.450168  
      83A      0.460894    84A      0.489347    85A      0.495614  
      86A      0.509128    87A      0.552673    88A      0.594764  
      89A      0.651123    90A      0.689173    91A      0.726138  
      92A      0.736037    93A      0.745130    94A      0.753511  
      95A      0.756950    96A      0.770258    97A      0.775297  
      98A      0.783898    99A      0.810974   100A      0.824204  
     101A      0.836910   102A      0.847370   103A      0.873849  
     104A      0.895900   105A      0.903107   106A      0.916064  
     107A      0.936707   108A      0.956270   109A      0.969628  
     110A      0.976825   111A      0.986373   112A      0.995117  
     113A      1.008273   114A      1.020112   115A      1.027945  
     116A      1.043064   117A      1.046649   118A      1.076830  
     119A      1.092082   120A      1.096522   121A      1.109930  
     122A      1.127125   123A      1.138659   124A      1.144900  
     125A      1.156393   126A      1.171333   127A      1.179254  
     128A      1.182559   129A      1.184764   130A      1.190385  
     131A      1.198284   132A      1.201595   133A      1.211367  
     134A      1.225024   135A      1.226199   136A      1.231870  
     137A      1.244403   138A      1.253121   139A      1.258151  
     140A      1.267251   141A      1.278283   142A      1.284038  
     143A      1.292797   144A      1.313776   145A      1.328245  
     146A      1.359523   147A      1.363752   148A      1.389840  
     149A      1.410577   150A      1.443355   151A      1.455050  
     152A      1.484559   153A      1.508097   154A      1.517302  
     155A      1.572213   156A      1.623808   157A      1.649467  
     158A      1.668549   159A      1.693882   160A      1.723735  
     161A      1.740953   162A      1.752676   163A      1.773088  
     164A      1.799343   165A      1.818557   166A      1.833473  
     167A      1.880442   168A      1.905445   169A      1.933410  
     170A      1.942022   171A      1.998334   172A      2.007659  
     173A      2.038473   174A      2.055232   175A      2.063259  
     176A      2.106847   177A      2.118554   178A      2.131233  
     179A      2.153062   180A      2.169914   181A      2.185544  
     182A      2.203797   183A      2.221429   184A      2.234042  
     185A      2.249569   186A      2.275065   187A      2.290885  
     188A      2.298152   189A      2.314373   190A      2.352166  
     191A      2.357605   192A      2.360211   193A      2.384668  
     194A      2.401928   195A      2.431535   196A      2.434975  
     197A      2.461121   198A      2.464562   199A      2.505377  
     200A      2.532014   201A      2.539801   202A      2.562047  
     203A      2.586516   204A      2.596403   205A      2.628850  
     206A      2.647569   207A      2.693126   208A      2.704397  
     209A      2.718449   210A      2.730530   211A      2.764005  
     212A      2.779169   213A      2.790089   214A      2.810035  
     215A      2.816327   216A      2.846136   217A      2.875170  
     218A      2.894961   219A      2.950583   220A      2.989849  
     221A      3.011973   222A      3.019209   223A      3.035269  
     224A      3.047525   225A      3.082403   226A      3.111100  
     227A      3.115208   228A      3.169983   229A      3.247644  
     230A      3.354744   231A      3.383412   232A      3.437741  
     233A      3.528831   234A      3.592768   235A      4.244030  
     236A      4.397243   237A      4.475594   238A      4.547211  
     239A      4.579989   240A      4.598087   241A      4.658846  
     242A      4.710198   243A      4.738242   244A      4.809775  
     245A      4.915830   246A      4.965071   247A      4.981290  
     248A      5.183819  

    Final Occupation by Irrep:
              A 
    DOCC [    55 ]

  Energy converged.

  @DF-RHF Final Energy:  -664.97686034625247

   => Energetics <=

    Nuclear Repulsion Energy =            985.7029257112915275
    One-Electron Energy =               -2864.5657313842075382
    Two-Electron Energy =                1213.8859453266636592
    Total Energy =                       -664.9768603462523515



Properties will be evaluated at   0.000000,   0.000000,   0.000000 [a0]

Properties computed using the HF density matrix

  Nuclear Dipole Moment: [e a0]
     X:    -5.4670      Y:    25.6398      Z:   -23.7709

  Electronic Dipole Moment: [e a0]
     X:     4.4790      Y:   -24.6070      Z:    25.0284

  Dipole Moment: [e a0]
     X:    -0.9879      Y:     1.0328      Z:     1.2575     Total:     1.9037

  Dipole Moment: [D]
     X:    -2.5111      Y:     2.6250      Z:     3.1963     Total:     4.8387


 Field computed on the grid and written to grid_field.dat

 Electrostatic potential computed on the grid and written to grid_esp.dat

*** tstop() called on sophon at Sun Nov 25 20:19:55 2018
Module time:
	user time   =     148.68 seconds =       2.48 minutes
	system time =       0.80 seconds =       0.01 minutes
	total time  =        149 seconds =       2.48 minutes
Total time:
	user time   =     148.68 seconds =       2.48 minutes
	system time =       0.80 seconds =       0.01 minutes
	total time  =        149 seconds =       2.48 minutes

    Psi4 stopped on: Sunday, 25 November 2018 08:19PM
    Psi4 wall time for execution: 0:02:29.53

*** Psi4 exiting successfully. Buy a developer a beer!
