
    -----------------------------------------------------------------------
          Psi4: An Open-Source Ab Initio Electronic Structure Package
                               Psi4 1.2.1 release

                         Git: Rev {HEAD} 406f4de 


    R. M. Parrish, L. A. Burns, D. G. A. Smith, A. C. Simmonett,
    A. E. DePrince III, E. G. Hohenstein, U. Bozkaya, A. Yu. Sokolov,
    R. Di Remigio, R. M. Richard, J. F. Gonthier, A. M. James,
    H. R. McAlexander, A. Kumar, M. Saitow, X. Wang, B. P. Pritchard,
    P. Verma, H. F. Schaefer III, K. Patkowski, R. A. King, E. F. Valeev,
    F. A. Evangelista, J. M. Turney, T. D. Crawford, and C. D. Sherrill,
    J. Chem. Theory Comput. 13(7) pp 3185--3197 (2017).
    (doi: 10.1021/acs.jctc.7b00174)


                         Additional Contributions by
    P. Kraus, H. Kruse, M. H. Lechner, M. C. Schieber, and R. A. Shaw

    -----------------------------------------------------------------------


    Psi4 started on: Sunday, 25 November 2018 08:55PM

    Process ID: 26799
    Host:       sophon
    PSIDATADIR: /home/hyesu/anaconda3/envs/respyte/share/psi4
    Memory:     500.0 MiB
    Threads:    1
    
  ==> Input File <==

--------------------------------------------------------------------------
memory 12 gb
molecule meoh {
noreorient
nocom
0 1
H     3.7580    -0.2260    -1.1680
C     3.0130    -0.9530    -0.8600
H     3.2460    -1.2690     0.1510
H     3.0620    -1.8010    -1.5270
C     1.6390    -0.3280    -0.9620
O     0.9290    -0.4890    -1.9160
N     1.2680     0.4330     0.1010
H     1.9090     0.5400     0.8530
C     0.0920     1.2730     0.0980
H    -0.2350     1.3980    -0.9250
H     0.3330     2.2500     0.4930
C    -1.1030     0.7630     0.8960
O    -1.9070     1.5460     1.3240
N    -1.2030    -0.5690     1.0580
H    -0.5930    -1.1490     0.5310
C    -2.3820    -1.1650     1.6500
H    -3.2370    -1.1200     0.9840
H    -2.6320    -0.6420     2.5610
H    -2.1700    -2.2000     1.8830
}
set {
basis 6-31g*
}
E,wfn = prop('HF' , properties = ['GRID_ESP', 'GRID_FIELD'], return_wfn=True)
--------------------------------------------------------------------------

  Memory set to  11.176 GiB by Python driver.

*** tstart() called on sophon
*** at Sun Nov 25 20:55:42 2018

   => Loading Basis Set <=

    Name: 6-31G*
    Role: ORBITAL
    Keyword: BASIS
    atoms 1, 3-4, 8, 10-11, 15, 17-19 entry H          line    44 file /home/hyesu/anaconda3/envs/respyte/share/psi4/basis/6-31gs.gbs 
    atoms 2, 5, 9, 12, 16             entry C          line   111 file /home/hyesu/anaconda3/envs/respyte/share/psi4/basis/6-31gs.gbs 
    atoms 6, 13                       entry O          line   145 file /home/hyesu/anaconda3/envs/respyte/share/psi4/basis/6-31gs.gbs 
    atoms 7, 14                       entry N          line   128 file /home/hyesu/anaconda3/envs/respyte/share/psi4/basis/6-31gs.gbs 


         ---------------------------------------------------------
                                   SCF
            by Justin Turney, Rob Parrish, Andy Simmonett
                             and Daniel Smith
                              RHF Reference
                        1 Threads,  11444 MiB Core
         ---------------------------------------------------------

  ==> Geometry <==

    Molecular point group: c1
    Full point group: C1

    Geometry (in Angstrom), charge = 0, multiplicity = 1:

       Center              X                  Y                   Z               Mass       
    ------------   -----------------  -----------------  -----------------  -----------------
         H            3.758000000000    -0.226000000000    -1.168000000000     1.007825032070
         C            3.013000000000    -0.953000000000    -0.860000000000    12.000000000000
         H            3.246000000000    -1.269000000000     0.151000000000     1.007825032070
         H            3.062000000000    -1.801000000000    -1.527000000000     1.007825032070
         C            1.639000000000    -0.328000000000    -0.962000000000    12.000000000000
         O            0.929000000000    -0.489000000000    -1.916000000000    15.994914619560
         N            1.268000000000     0.433000000000     0.101000000000    14.003074004780
         H            1.909000000000     0.540000000000     0.853000000000     1.007825032070
         C            0.092000000000     1.273000000000     0.098000000000    12.000000000000
         H           -0.235000000000     1.398000000000    -0.925000000000     1.007825032070
         H            0.333000000000     2.250000000000     0.493000000000     1.007825032070
         C           -1.103000000000     0.763000000000     0.896000000000    12.000000000000
         O           -1.907000000000     1.546000000000     1.324000000000    15.994914619560
         N           -1.203000000000    -0.569000000000     1.058000000000    14.003074004780
         H           -0.593000000000    -1.149000000000     0.531000000000     1.007825032070
         C           -2.382000000000    -1.165000000000     1.650000000000    12.000000000000
         H           -3.237000000000    -1.120000000000     0.984000000000     1.007825032070
         H           -2.632000000000    -0.642000000000     2.561000000000     1.007825032070
         H           -2.170000000000    -2.200000000000     1.883000000000     1.007825032070

  Running in c1 symmetry.

  Rotational constants: A =      0.10229  B =      0.02853  C =      0.02570 [cm^-1]
  Rotational constants: A =   3066.63237  B =    855.43937  C =    770.32180 [MHz]
  Nuclear repulsion =  460.843356158864708

  Charge       = 0
  Multiplicity = 1
  Electrons    = 70
  Nalpha       = 35
  Nbeta        = 35

  ==> Algorithm <==

  SCF Algorithm Type is DF.
  DIIS enabled.
  MOM disabled.
  Fractional occupation disabled.
  Guess Type is SAD.
  Energy threshold   = 1.00e-06
  Density threshold  = 1.00e-06
  Integral threshold = 0.00e+00

  ==> Primary Basis <==

  Basis Set: 6-31G*
    Blend: 6-31G*
    Number of shells: 74
    Number of basis function: 155
    Number of Cartesian functions: 155
    Spherical Harmonics?: false
    Max angular momentum: 2

   => Loading Basis Set <=

    Name: (6-31G* AUX)
    Role: JKFIT
    Keyword: DF_BASIS_SCF
    atoms 1, 3-4, 8, 10-11, 15, 17-19 entry H          line    51 file /home/hyesu/anaconda3/envs/respyte/share/psi4/basis/cc-pvdz-jkfit.gbs 
    atoms 2, 5, 9, 12, 16             entry C          line   121 file /home/hyesu/anaconda3/envs/respyte/share/psi4/basis/cc-pvdz-jkfit.gbs 
    atoms 6, 13                       entry O          line   221 file /home/hyesu/anaconda3/envs/respyte/share/psi4/basis/cc-pvdz-jkfit.gbs 
    atoms 7, 14                       entry N          line   171 file /home/hyesu/anaconda3/envs/respyte/share/psi4/basis/cc-pvdz-jkfit.gbs 

  ==> Pre-Iterations <==

   -------------------------------------------------------
    Irrep   Nso     Nmo     Nalpha   Nbeta   Ndocc  Nsocc
   -------------------------------------------------------
     A        155     155       0       0       0       0
   -------------------------------------------------------
    Total     155     155      35      35      35       0
   -------------------------------------------------------

  ==> Integral Setup <==

  ==> DiskDFJK: Density-Fitted J/K Matrices <==

    J tasked:                  Yes
    K tasked:                  Yes
    wK tasked:                  No
    OpenMP threads:              1
    Integrals threads:           1
    Memory (MB):              8583
    Algorithm:                Core
    Integral Cache:           NONE
    Schwarz Cutoff:          1E-12
    Fitting Condition:       1E-12

   => Auxiliary Basis Set <=

  Basis Set: (6-31G* AUX)
    Blend: CC-PVDZ-JKFIT
    Number of shells: 306
    Number of basis function: 979
    Number of Cartesian functions: 979
    Spherical Harmonics?: false
    Max angular momentum: 3

  Minimum eigenvalue in the overlap matrix is 2.6753810293E-03.
  Using Symmetric Orthogonalization.

  SCF Guess: Superposition of Atomic Densities via on-the-fly atomic UHF.

  ==> Iterations <==

                           Total Energy        Delta E     RMS |[F,P]|

   @DF-RHF iter   0:  -457.53208662779343   -4.57532e+02   3.68628e-02 
   @DF-RHF iter   1:  -453.55752586718006    3.97456e+00   4.20016e-03 
   @DF-RHF iter   2:  -453.74830890422498   -1.90783e-01   2.60720e-03 DIIS
   @DF-RHF iter   3:  -453.81103966904004   -6.27308e-02   6.36340e-04 DIIS
   @DF-RHF iter   4:  -453.81900488232321   -7.96521e-03   2.01570e-04 DIIS
   @DF-RHF iter   5:  -453.81987319998188   -8.68318e-04   7.46063e-05 DIIS
   @DF-RHF iter   6:  -453.82007238868590   -1.99189e-04   3.00522e-05 DIIS
   @DF-RHF iter   7:  -453.82010562282312   -3.32341e-05   1.09201e-05 DIIS
   @DF-RHF iter   8:  -453.82011023562274   -4.61280e-06   4.01182e-06 DIIS
   @DF-RHF iter   9:  -453.82011091525175   -6.79629e-07   1.74620e-06 DIIS
   @DF-RHF iter  10:  -453.82011102086176   -1.05610e-07   7.16639e-07 DIIS

  ==> Post-Iterations <==

    Orbital Energies [Eh]
    ---------------------

    Doubly Occupied:                                                      

       1A    -20.536777     2A    -20.518831     3A    -15.601654  
       4A    -15.581996     5A    -11.362875     6A    -11.341909  
       7A    -11.275258     8A    -11.255077     9A    -11.244997  
      10A     -1.406056    11A     -1.387923    12A     -1.253263  
      13A     -1.226187    14A     -1.040433    15A     -0.983858  
      16A     -0.933664    17A     -0.809450    18A     -0.788192  
      19A     -0.729517    20A     -0.695725    21A     -0.674215  
      22A     -0.637029    23A     -0.626229    24A     -0.623911  
      25A     -0.597538    26A     -0.581774    27A     -0.577216  
      28A     -0.568585    29A     -0.550571    30A     -0.530989  
      31A     -0.508088    32A     -0.442440    33A     -0.431692  
      34A     -0.396557    35A     -0.381896  

    Virtual:                                                              

      36A      0.188861    37A      0.200998    38A      0.210014  
      39A      0.244026    40A      0.264092    41A      0.279825  
      42A      0.285881    43A      0.294121    44A      0.320351  
      45A      0.323466    46A      0.337597    47A      0.347601  
      48A      0.370683    49A      0.382394    50A      0.422701  
      51A      0.454509    52A      0.486395    53A      0.525454  
      54A      0.575813    55A      0.632991    56A      0.716522  
      57A      0.733591    58A      0.743285    59A      0.749415  
      60A      0.755987    61A      0.774001    62A      0.803520  
      63A      0.816487    64A      0.823378    65A      0.862820  
      66A      0.906934    67A      0.933564    68A      0.936769  
      69A      0.968500    70A      1.004405    71A      1.009574  
      72A      1.027584    73A      1.057030    74A      1.074367  
      75A      1.096527    76A      1.101524    77A      1.124844  
      78A      1.129895    79A      1.146551    80A      1.152598  
      81A      1.182143    82A      1.188403    83A      1.196522  
      84A      1.206037    85A      1.220682    86A      1.225825  
      87A      1.262461    88A      1.291249    89A      1.339552  
      90A      1.351124    91A      1.358511    92A      1.396538  
      93A      1.454519    94A      1.489058    95A      1.543352  
      96A      1.566148    97A      1.601597    98A      1.640738  
      99A      1.663527   100A      1.707188   101A      1.727254  
     102A      1.800621   103A      1.809336   104A      1.841951  
     105A      1.933161   106A      1.947015   107A      2.030067  
     108A      2.065363   109A      2.097540   110A      2.113313  
     111A      2.125411   112A      2.133708   113A      2.182075  
     114A      2.187953   115A      2.206752   116A      2.243961  
     117A      2.291895   118A      2.303182   119A      2.352956  
     120A      2.361153   121A      2.398700   122A      2.415139  
     123A      2.459367   124A      2.510601   125A      2.539024  
     126A      2.554952   127A      2.592299   128A      2.636718  
     129A      2.666215   130A      2.704553   131A      2.743361  
     132A      2.765916   133A      2.794559   134A      2.814743  
     135A      2.874796   136A      2.938261   137A      3.010755  
     138A      3.027510   139A      3.057715   140A      3.085635  
     141A      3.226351   142A      3.329243   143A      3.365947  
     144A      3.411844   145A      3.528889   146A      3.565630  
     147A      4.354024   148A      4.448048   149A      4.494040  
     150A      4.497946   151A      4.626291   152A      4.677694  
     153A      4.716925   154A      4.907588   155A      5.005251  

    Final Occupation by Irrep:
              A 
    DOCC [    35 ]

  Energy converged.

  @DF-RHF Final Energy:  -453.82011102086176

   => Energetics <=

    Nuclear Repulsion Energy =            460.8433561588647080
    One-Electron Energy =               -1533.1219188518039118
    Two-Electron Energy =                 618.4584516720774445
    Total Energy =                       -453.8201110208617592



Properties will be evaluated at   0.000000,   0.000000,   0.000000 [a0]

Properties computed using the HF density matrix

  Nuclear Dipole Moment: [e a0]
     X:     6.8521      Y:     1.5590      Z:    22.9507

  Electronic Dipole Moment: [e a0]
     X:    -5.2553      Y:    -2.3904      Z:   -22.3086

  Dipole Moment: [e a0]
     X:     1.5968      Y:    -0.8314      Z:     0.6421     Total:     1.9114

  Dipole Moment: [D]
     X:     4.0587      Y:    -2.1132      Z:     1.6321     Total:     4.8583


 Field computed on the grid and written to grid_field.dat

 Electrostatic potential computed on the grid and written to grid_esp.dat

*** tstop() called on sophon at Sun Nov 25 20:56:22 2018
Module time:
	user time   =      39.98 seconds =       0.67 minutes
	system time =       0.25 seconds =       0.00 minutes
	total time  =         40 seconds =       0.67 minutes
Total time:
	user time   =      39.98 seconds =       0.67 minutes
	system time =       0.25 seconds =       0.00 minutes
	total time  =         40 seconds =       0.67 minutes

    Psi4 stopped on: Sunday, 25 November 2018 08:56PM
    Psi4 wall time for execution: 0:00:40.27

*** Psi4 exiting successfully. Buy a developer a beer!
