
    -----------------------------------------------------------------------
          Psi4: An Open-Source Ab Initio Electronic Structure Package
                               Psi4 1.2.1 release

                         Git: Rev {HEAD} 406f4de 


    R. M. Parrish, L. A. Burns, D. G. A. Smith, A. C. Simmonett,
    A. E. DePrince III, E. G. Hohenstein, U. Bozkaya, A. Yu. Sokolov,
    R. Di Remigio, R. M. Richard, J. F. Gonthier, A. M. James,
    H. R. McAlexander, A. Kumar, M. Saitow, X. Wang, B. P. Pritchard,
    P. Verma, H. F. Schaefer III, K. Patkowski, R. A. King, E. F. Valeev,
    F. A. Evangelista, J. M. Turney, T. D. Crawford, and C. D. Sherrill,
    J. Chem. Theory Comput. 13(7) pp 3185--3197 (2017).
    (doi: 10.1021/acs.jctc.7b00174)


                         Additional Contributions by
    P. Kraus, H. Kruse, M. H. Lechner, M. C. Schieber, and R. A. Shaw

    -----------------------------------------------------------------------


    Psi4 started on: Sunday, 25 November 2018 08:41PM

    Process ID: 26531
    Host:       sophon
    PSIDATADIR: /home/hyesu/anaconda3/envs/respyte/share/psi4
    Memory:     500.0 MiB
    Threads:    1
    
  ==> Input File <==

--------------------------------------------------------------------------
memory 12 gb
molecule meoh {
noreorient
nocom
0 1
H     4.7400     2.3870     1.4530
C     4.4020     2.3170     0.4250
H     5.0810     1.6750    -0.1230
H     4.4220     3.3120     0.0010
C     2.9740     1.8170     0.4220
O     2.0590     2.5220     0.7670
N     2.7980     0.5390     0.0340
H     3.5670    -0.0290    -0.2440
C     1.4990    -0.0900     0.0340
H     0.9530     0.2660     0.8960
C     0.7060     0.2570    -1.2490
H     1.1940    -0.2160    -2.0950
H     0.7940     1.3280    -1.3850
C    -0.7450    -0.1260    -1.1990
C    -1.3680    -1.0850    -1.9160
H    -0.9650    -1.7470    -2.6550
N    -2.6990    -1.1480    -1.5810
H    -3.3730    -1.7300    -2.0190
C    -2.9640    -0.1950    -0.6330
C    -4.1590     0.1380     0.0040
H    -5.0750    -0.3810    -0.2160
C    -4.1220     1.1600     0.9240
H    -5.0260     1.4430     1.4340
C    -2.9300     1.8440     1.2110
H    -2.9420     2.6420     1.9320
C    -1.7540     1.5130     0.5800
H    -0.8460     2.0480     0.7960
C    -1.7630     0.4720    -0.3580
C     1.7290    -1.5940     0.1500
O     2.7180    -2.1050    -0.3120
N     0.7730    -2.2890     0.7880
H    -0.0730    -1.8200     1.0200
C     0.7980    -3.7340     0.8470
H     1.7850    -4.0700     1.1280
H     0.5400    -4.1830    -0.1070
H     0.0870    -4.0630     1.5930
}
set {
basis 6-31g*
}
E,wfn = prop('HF' , properties = ['GRID_ESP', 'GRID_FIELD'], return_wfn=True)
--------------------------------------------------------------------------

  Memory set to  11.176 GiB by Python driver.

*** tstart() called on sophon
*** at Sun Nov 25 20:41:34 2018

   => Loading Basis Set <=

    Name: 6-31G*
    Role: ORBITAL
    Keyword: BASIS
    atoms 1, 3-4, 8, 10, 12-13, 16, 18, 21, 23, 25, 27, 32, 34-36 entry H          line    44 file /home/hyesu/anaconda3/envs/respyte/share/psi4/basis/6-31gs.gbs 
    atoms 2, 5, 9, 11, 14-15, 19-20, 22, 24, 26, 28-29, 33        entry C          line   111 file /home/hyesu/anaconda3/envs/respyte/share/psi4/basis/6-31gs.gbs 
    atoms 6, 30                                                   entry O          line   145 file /home/hyesu/anaconda3/envs/respyte/share/psi4/basis/6-31gs.gbs 
    atoms 7, 17, 31                                               entry N          line   128 file /home/hyesu/anaconda3/envs/respyte/share/psi4/basis/6-31gs.gbs 


         ---------------------------------------------------------
                                   SCF
            by Justin Turney, Rob Parrish, Andy Simmonett
                             and Daniel Smith
                              RHF Reference
                        1 Threads,  11444 MiB Core
         ---------------------------------------------------------

  ==> Geometry <==

    Molecular point group: c1
    Full point group: C1

    Geometry (in Angstrom), charge = 0, multiplicity = 1:

       Center              X                  Y                   Z               Mass       
    ------------   -----------------  -----------------  -----------------  -----------------
         H            4.740000000000     2.387000000000     1.453000000000     1.007825032070
         C            4.402000000000     2.317000000000     0.425000000000    12.000000000000
         H            5.081000000000     1.675000000000    -0.123000000000     1.007825032070
         H            4.422000000000     3.312000000000     0.001000000000     1.007825032070
         C            2.974000000000     1.817000000000     0.422000000000    12.000000000000
         O            2.059000000000     2.522000000000     0.767000000000    15.994914619560
         N            2.798000000000     0.539000000000     0.034000000000    14.003074004780
         H            3.567000000000    -0.029000000000    -0.244000000000     1.007825032070
         C            1.499000000000    -0.090000000000     0.034000000000    12.000000000000
         H            0.953000000000     0.266000000000     0.896000000000     1.007825032070
         C            0.706000000000     0.257000000000    -1.249000000000    12.000000000000
         H            1.194000000000    -0.216000000000    -2.095000000000     1.007825032070
         H            0.794000000000     1.328000000000    -1.385000000000     1.007825032070
         C           -0.745000000000    -0.126000000000    -1.199000000000    12.000000000000
         C           -1.368000000000    -1.085000000000    -1.916000000000    12.000000000000
         H           -0.965000000000    -1.747000000000    -2.655000000000     1.007825032070
         N           -2.699000000000    -1.148000000000    -1.581000000000    14.003074004780
         H           -3.373000000000    -1.730000000000    -2.019000000000     1.007825032070
         C           -2.964000000000    -0.195000000000    -0.633000000000    12.000000000000
         C           -4.159000000000     0.138000000000     0.004000000000    12.000000000000
         H           -5.075000000000    -0.381000000000    -0.216000000000     1.007825032070
         C           -4.122000000000     1.160000000000     0.924000000000    12.000000000000
         H           -5.026000000000     1.443000000000     1.434000000000     1.007825032070
         C           -2.930000000000     1.844000000000     1.211000000000    12.000000000000
         H           -2.942000000000     2.642000000000     1.932000000000     1.007825032070
         C           -1.754000000000     1.513000000000     0.580000000000    12.000000000000
         H           -0.846000000000     2.048000000000     0.796000000000     1.007825032070
         C           -1.763000000000     0.472000000000    -0.358000000000    12.000000000000
         C            1.729000000000    -1.594000000000     0.150000000000    12.000000000000
         O            2.718000000000    -2.105000000000    -0.312000000000    15.994914619560
         N            0.773000000000    -2.289000000000     0.788000000000    14.003074004780
         H           -0.073000000000    -1.820000000000     1.020000000000     1.007825032070
         C            0.798000000000    -3.734000000000     0.847000000000    12.000000000000
         H            1.785000000000    -4.070000000000     1.128000000000     1.007825032070
         H            0.540000000000    -4.183000000000    -0.107000000000     1.007825032070
         H            0.087000000000    -4.063000000000     1.593000000000     1.007825032070

  Running in c1 symmetry.

  Rotational constants: A =      0.01720  B =      0.00884  C =      0.00675 [cm^-1]
  Rotational constants: A =    515.63805  B =    265.00296  C =    202.37898 [MHz]
  Nuclear repulsion = 1427.844690128092452

  Charge       = 0
  Multiplicity = 1
  Electrons    = 138
  Nalpha       = 69
  Nbeta        = 69

  ==> Algorithm <==

  SCF Algorithm Type is DF.
  DIIS enabled.
  MOM disabled.
  Fractional occupation disabled.
  Guess Type is SAD.
  Energy threshold   = 1.00e-06
  Density threshold  = 1.00e-06
  Integral threshold = 0.00e+00

  ==> Primary Basis <==

  Basis Set: 6-31G*
    Blend: 6-31G*
    Number of shells: 148
    Number of basis function: 319
    Number of Cartesian functions: 319
    Spherical Harmonics?: false
    Max angular momentum: 2

   => Loading Basis Set <=

    Name: (6-31G* AUX)
    Role: JKFIT
    Keyword: DF_BASIS_SCF
    atoms 1, 3-4, 8, 10, 12-13, 16, 18, 21, 23, 25, 27, 32, 34-36 entry H          line    51 file /home/hyesu/anaconda3/envs/respyte/share/psi4/basis/cc-pvdz-jkfit.gbs 
    atoms 2, 5, 9, 11, 14-15, 19-20, 22, 24, 26, 28-29, 33        entry C          line   121 file /home/hyesu/anaconda3/envs/respyte/share/psi4/basis/cc-pvdz-jkfit.gbs 
    atoms 6, 30                                                   entry O          line   221 file /home/hyesu/anaconda3/envs/respyte/share/psi4/basis/cc-pvdz-jkfit.gbs 
    atoms 7, 17, 31                                               entry N          line   171 file /home/hyesu/anaconda3/envs/respyte/share/psi4/basis/cc-pvdz-jkfit.gbs 

  ==> Pre-Iterations <==

   -------------------------------------------------------
    Irrep   Nso     Nmo     Nalpha   Nbeta   Ndocc  Nsocc
   -------------------------------------------------------
     A        319     319       0       0       0       0
   -------------------------------------------------------
    Total     319     319      69      69      69       0
   -------------------------------------------------------

  ==> Integral Setup <==

  ==> DiskDFJK: Density-Fitted J/K Matrices <==

    J tasked:                  Yes
    K tasked:                  Yes
    wK tasked:                  No
    OpenMP threads:              1
    Integrals threads:           1
    Memory (MB):              8583
    Algorithm:                Core
    Integral Cache:           NONE
    Schwarz Cutoff:          1E-12
    Fitting Condition:       1E-12

   => Auxiliary Basis Set <=

  Basis Set: (6-31G* AUX)
    Blend: CC-PVDZ-JKFIT
    Number of shells: 609
    Number of basis function: 1964
    Number of Cartesian functions: 1964
    Spherical Harmonics?: false
    Max angular momentum: 3

  Minimum eigenvalue in the overlap matrix is 3.4586339556E-04.
  Using Symmetric Orthogonalization.

  SCF Guess: Superposition of Atomic Densities via on-the-fly atomic UHF.

  ==> Iterations <==

                           Total Energy        Delta E     RMS |[F,P]|

   @DF-RHF iter   0:  -860.59558367325803   -8.60596e+02   2.51926e-02 
   @DF-RHF iter   1:  -852.56628461493790    8.02930e+00   3.02481e-03 
   @DF-RHF iter   2:  -853.01732575337553   -4.51041e-01   1.84604e-03 DIIS
   @DF-RHF iter   3:  -853.15479308376439   -1.37467e-01   4.77874e-04 DIIS
   @DF-RHF iter   4:  -853.17250204659501   -1.77090e-02   1.31598e-04 DIIS
   @DF-RHF iter   5:  -853.17401343421272   -1.51139e-03   4.73237e-05 DIIS
   @DF-RHF iter   6:  -853.17438191120414   -3.68477e-04   2.16346e-05 DIIS
   @DF-RHF iter   7:  -853.17445445499845   -7.25438e-05   7.49581e-06 DIIS
   @DF-RHF iter   8:  -853.17446223250533   -7.77751e-06   2.52964e-06 DIIS
   @DF-RHF iter   9:  -853.17446323215904   -9.99654e-07   9.83385e-07 DIIS

  ==> Post-Iterations <==

    Orbital Energies [Eh]
    ---------------------

    Doubly Occupied:                                                      

       1A    -20.528439     2A    -20.515357     3A    -15.605738  
       4A    -15.588153     5A    -15.578247     6A    -11.348172  
       7A    -11.343602     8A    -11.274776     9A    -11.267229  
      10A    -11.264560    11A    -11.259558    12A    -11.232357  
      13A    -11.229658    14A    -11.227648    15A    -11.227427  
      16A    -11.225112    17A    -11.222821    18A    -11.221849  
      19A    -11.216606    20A     -1.398446    21A     -1.382616  
      22A     -1.302955    23A     -1.237526    24A     -1.233464  
      25A     -1.133516    26A     -1.090209    27A     -1.037995  
      28A     -1.000538    29A     -0.993476    30A     -0.979901  
      31A     -0.953779    32A     -0.887322    33A     -0.843803  
      34A     -0.808376    35A     -0.798613    36A     -0.785373  
      37A     -0.763576    38A     -0.733141    39A     -0.721608  
      40A     -0.669207    41A     -0.665183    42A     -0.656306  
      43A     -0.649776    44A     -0.638265    45A     -0.631321  
      46A     -0.615775    47A     -0.610845    48A     -0.597233  
      49A     -0.591806    50A     -0.588023    51A     -0.580872  
      52A     -0.567967    53A     -0.560909    54A     -0.557682  
      55A     -0.553098    56A     -0.537427    57A     -0.529055  
      58A     -0.519969    59A     -0.503527    60A     -0.491173  
      61A     -0.473437    62A     -0.465608    63A     -0.425791  
      64A     -0.412871    65A     -0.400051    66A     -0.384912  
      67A     -0.370814    68A     -0.299981    69A     -0.282997  

    Virtual:                                                              

      70A      0.130494    71A      0.173364    72A      0.192464  
      73A      0.213695    74A      0.223811    75A      0.228706  
      76A      0.233947    77A      0.240953    78A      0.253764  
      79A      0.261965    80A      0.281566    81A      0.287243  
      82A      0.296000    83A      0.300144    84A      0.315485  
      85A      0.322425    86A      0.330338    87A      0.331415  
      88A      0.333823    89A      0.338056    90A      0.351915  
      91A      0.366604    92A      0.371783    93A      0.394531  
      94A      0.405407    95A      0.410941    96A      0.424687  
      97A      0.441932    98A      0.445401    99A      0.460149  
     100A      0.473525   101A      0.483291   102A      0.510668  
     103A      0.524851   104A      0.528595   105A      0.533800  
     106A      0.551416   107A      0.585493   108A      0.620051  
     109A      0.646117   110A      0.664865   111A      0.690966  
     112A      0.708275   113A      0.721704   114A      0.725055  
     115A      0.748289   116A      0.756689   117A      0.759940  
     118A      0.764754   119A      0.770073   120A      0.772562  
     121A      0.791628   122A      0.797173   123A      0.804287  
     124A      0.810817   125A      0.825775   126A      0.835004  
     127A      0.837915   128A      0.842267   129A      0.849654  
     130A      0.856309   131A      0.860718   132A      0.870721  
     133A      0.884857   134A      0.901384   135A      0.907018  
     136A      0.909342   137A      0.921493   138A      0.936272  
     139A      0.956981   140A      0.969151   141A      0.985282  
     142A      1.001924   143A      1.014251   144A      1.022446  
     145A      1.031129   146A      1.035845   147A      1.043114  
     148A      1.049648   149A      1.070644   150A      1.076604  
     151A      1.085772   152A      1.097921   153A      1.112437  
     154A      1.122058   155A      1.124321   156A      1.139212  
     157A      1.141302   158A      1.149278   159A      1.153365  
     160A      1.167074   161A      1.171096   162A      1.177752  
     163A      1.184334   164A      1.193263   165A      1.196149  
     166A      1.200791   167A      1.211219   168A      1.216951  
     169A      1.222010   170A      1.225905   171A      1.228538  
     172A      1.247991   173A      1.264324   174A      1.267323  
     175A      1.268070   176A      1.295545   177A      1.297346  
     178A      1.327595   179A      1.353321   180A      1.364331  
     181A      1.375280   182A      1.378957   183A      1.389861  
     184A      1.406481   185A      1.448509   186A      1.455546  
     187A      1.487773   188A      1.503104   189A      1.526737  
     190A      1.534896   191A      1.548324   192A      1.565673  
     193A      1.582430   194A      1.604999   195A      1.615962  
     196A      1.623758   197A      1.633576   198A      1.671175  
     199A      1.677697   200A      1.689666   201A      1.699754  
     202A      1.724129   203A      1.729834   204A      1.749175  
     205A      1.762695   206A      1.776260   207A      1.782826  
     208A      1.791225   209A      1.795386   210A      1.811037  
     211A      1.819303   212A      1.880414   213A      1.887250  
     214A      1.909383   215A      1.990886   216A      2.006031  
     217A      2.020033   218A      2.048288   219A      2.065823  
     220A      2.088624   221A      2.111855   222A      2.117487  
     223A      2.128715   224A      2.134667   225A      2.143037  
     226A      2.154456   227A      2.174545   228A      2.184576  
     229A      2.201090   230A      2.206873   231A      2.213930  
     232A      2.234429   233A      2.247307   234A      2.270562  
     235A      2.279173   236A      2.282216   237A      2.309700  
     238A      2.315929   239A      2.330206   240A      2.354072  
     241A      2.365673   242A      2.374242   243A      2.382005  
     244A      2.392036   245A      2.397480   246A      2.424079  
     247A      2.443991   248A      2.478139   249A      2.492300  
     250A      2.495450   251A      2.509281   252A      2.534459  
     253A      2.551085   254A      2.558625   255A      2.580439  
     256A      2.584534   257A      2.594338   258A      2.600727  
     259A      2.625244   260A      2.628853   261A      2.649235  
     262A      2.700202   263A      2.707147   264A      2.718562  
     265A      2.727975   266A      2.742944   267A      2.758535  
     268A      2.773474   269A      2.791616   270A      2.820634  
     271A      2.852167   272A      2.872231   273A      2.889793  
     274A      2.919392   275A      2.927749   276A      2.953742  
     277A      2.983715   278A      2.990242   279A      3.025489  
     280A      3.045947   281A      3.057064   282A      3.068444  
     283A      3.095615   284A      3.109815   285A      3.118013  
     286A      3.134557   287A      3.159352   288A      3.195615  
     289A      3.245959   290A      3.273817   291A      3.305663  
     292A      3.344427   293A      3.380145   294A      3.395760  
     295A      3.416880   296A      3.536234   297A      3.556072  
     298A      3.607682   299A      3.650730   300A      3.867860  
     301A      4.404001   302A      4.444300   303A      4.465901  
     304A      4.517244   305A      4.538228   306A      4.558050  
     307A      4.589010   308A      4.613522   309A      4.637777  
     310A      4.664235   311A      4.708074   312A      4.757805  
     313A      4.802681   314A      4.848855   315A      4.913749  
     316A      4.942173   317A      5.005486   318A      5.106789  
     319A      5.252291  

    Final Occupation by Irrep:
              A 
    DOCC [    69 ]

  Energy converged.

  @DF-RHF Final Energy:  -853.17446323215904

   => Energetics <=

    Nuclear Repulsion Energy =           1427.8446901280924521
    One-Electron Energy =               -3999.4467494068067026
    Two-Electron Energy =                1718.4275960465554363
    Total Energy =                       -853.1744632321590416



Properties will be evaluated at   0.000000,   0.000000,   0.000000 [a0]

Properties computed using the HF density matrix

  Nuclear Dipole Moment: [e a0]
     X:     5.6711      Y:    -7.4153      Z:    -9.0934

  Electronic Dipole Moment: [e a0]
     X:    -6.4469      Y:     6.1573      Z:     8.7151

  Dipole Moment: [e a0]
     X:    -0.7759      Y:    -1.2580      Z:    -0.3783     Total:     1.5257

  Dipole Moment: [D]
     X:    -1.9721      Y:    -3.1975      Z:    -0.9615     Total:     3.8778


 Field computed on the grid and written to grid_field.dat

 Electrostatic potential computed on the grid and written to grid_esp.dat

*** tstop() called on sophon at Sun Nov 25 20:46:20 2018
Module time:
	user time   =     283.98 seconds =       4.73 minutes
	system time =       1.48 seconds =       0.02 minutes
	total time  =        286 seconds =       4.77 minutes
Total time:
	user time   =     283.98 seconds =       4.73 minutes
	system time =       1.48 seconds =       0.02 minutes
	total time  =        286 seconds =       4.77 minutes

    Psi4 stopped on: Sunday, 25 November 2018 08:46PM
    Psi4 wall time for execution: 0:04:45.52

*** Psi4 exiting successfully. Buy a developer a beer!
