
    -----------------------------------------------------------------------
          Psi4: An Open-Source Ab Initio Electronic Structure Package
                               Psi4 1.2.1 release

                         Git: Rev {HEAD} 406f4de 


    R. M. Parrish, L. A. Burns, D. G. A. Smith, A. C. Simmonett,
    A. E. DePrince III, E. G. Hohenstein, U. Bozkaya, A. Yu. Sokolov,
    R. Di Remigio, R. M. Richard, J. F. Gonthier, A. M. James,
    H. R. McAlexander, A. Kumar, M. Saitow, X. Wang, B. P. Pritchard,
    P. Verma, H. F. Schaefer III, K. Patkowski, R. A. King, E. F. Valeev,
    F. A. Evangelista, J. M. Turney, T. D. Crawford, and C. D. Sherrill,
    J. Chem. Theory Comput. 13(7) pp 3185--3197 (2017).
    (doi: 10.1021/acs.jctc.7b00174)


                         Additional Contributions by
    P. Kraus, H. Kruse, M. H. Lechner, M. C. Schieber, and R. A. Shaw

    -----------------------------------------------------------------------


    Psi4 started on: Sunday, 25 November 2018 08:14PM

    Process ID: 25906
    Host:       sophon
    PSIDATADIR: /home/hyesu/anaconda3/envs/respyte/share/psi4
    Memory:     500.0 MiB
    Threads:    1
    
  ==> Input File <==

--------------------------------------------------------------------------
memory 12 gb
molecule meoh {
noreorient
nocom
0 1
H    -2.7970    -0.9220     3.1760
C    -2.7940     0.1320     2.9140
H    -2.8190     0.7180     3.8210
H    -3.6770     0.3400     2.3180
C    -1.5170     0.4380     2.1620
O    -0.5780     0.9540     2.6940
N    -1.5500     0.0960     0.8340
H    -2.2960    -0.5220     0.6040
C    -0.3470    -0.1480     0.0600
H    -0.6930    -0.4480    -0.9240
C     0.5300     1.1050    -0.1120
H     0.6750     1.5540     0.8580
H     1.5040     0.8080    -0.4710
C    -0.0630     2.1440    -1.0690
H    -1.0570     2.4220    -0.7280
H     0.5430     3.0440    -0.9950
C    -0.1470     1.7500    -2.5520
H    -0.8710     0.9520    -2.7020
H    -0.5430     2.6050    -3.0930
C     1.1780     1.3460    -3.2090
H     1.1310     1.5750    -4.2730
H     1.9880     1.9410    -2.7990
N     1.5040    -0.0660    -2.9820
H     0.8440    -0.6450    -3.4690
H     2.4010    -0.2740    -3.3800
C     0.3980    -1.3820     0.5970
O    -0.0170    -2.0210     1.5270
N     1.4980    -1.7270    -0.0980
H     1.6960    -1.2420    -0.9470
C     2.2310    -2.9330     0.2140
H     1.6740    -3.8270    -0.0470
H     3.1620    -2.9260    -0.3380
H     2.4520    -2.9700     1.2710
}
set {
basis 6-31g*
}
E,wfn = prop('HF' , properties = ['GRID_ESP', 'GRID_FIELD'], return_wfn=True)
--------------------------------------------------------------------------

  Memory set to  11.176 GiB by Python driver.

*** tstart() called on sophon
*** at Sun Nov 25 20:14:52 2018

   => Loading Basis Set <=

    Name: 6-31G*
    Role: ORBITAL
    Keyword: BASIS
    atoms 1, 3-4, 8, 10, 12-13, 15-16, 18-19, 21-22, 24-25, 29, 31-33 entry H          line    44 file /home/hyesu/anaconda3/envs/respyte/share/psi4/basis/6-31gs.gbs 
    atoms 2, 5, 9, 11, 14, 17, 20, 26, 30                             entry C          line   111 file /home/hyesu/anaconda3/envs/respyte/share/psi4/basis/6-31gs.gbs 
    atoms 6, 27                                                       entry O          line   145 file /home/hyesu/anaconda3/envs/respyte/share/psi4/basis/6-31gs.gbs 
    atoms 7, 23, 28                                                   entry N          line   128 file /home/hyesu/anaconda3/envs/respyte/share/psi4/basis/6-31gs.gbs 


         ---------------------------------------------------------
                                   SCF
            by Justin Turney, Rob Parrish, Andy Simmonett
                             and Daniel Smith
                              RHF Reference
                        1 Threads,  11444 MiB Core
         ---------------------------------------------------------

  ==> Geometry <==

    Molecular point group: c1
    Full point group: C1

    Geometry (in Angstrom), charge = 0, multiplicity = 1:

       Center              X                  Y                   Z               Mass       
    ------------   -----------------  -----------------  -----------------  -----------------
         H           -2.797000000000    -0.922000000000     3.176000000000     1.007825032070
         C           -2.794000000000     0.132000000000     2.914000000000    12.000000000000
         H           -2.819000000000     0.718000000000     3.821000000000     1.007825032070
         H           -3.677000000000     0.340000000000     2.318000000000     1.007825032070
         C           -1.517000000000     0.438000000000     2.162000000000    12.000000000000
         O           -0.578000000000     0.954000000000     2.694000000000    15.994914619560
         N           -1.550000000000     0.096000000000     0.834000000000    14.003074004780
         H           -2.296000000000    -0.522000000000     0.604000000000     1.007825032070
         C           -0.347000000000    -0.148000000000     0.060000000000    12.000000000000
         H           -0.693000000000    -0.448000000000    -0.924000000000     1.007825032070
         C            0.530000000000     1.105000000000    -0.112000000000    12.000000000000
         H            0.675000000000     1.554000000000     0.858000000000     1.007825032070
         H            1.504000000000     0.808000000000    -0.471000000000     1.007825032070
         C           -0.063000000000     2.144000000000    -1.069000000000    12.000000000000
         H           -1.057000000000     2.422000000000    -0.728000000000     1.007825032070
         H            0.543000000000     3.044000000000    -0.995000000000     1.007825032070
         C           -0.147000000000     1.750000000000    -2.552000000000    12.000000000000
         H           -0.871000000000     0.952000000000    -2.702000000000     1.007825032070
         H           -0.543000000000     2.605000000000    -3.093000000000     1.007825032070
         C            1.178000000000     1.346000000000    -3.209000000000    12.000000000000
         H            1.131000000000     1.575000000000    -4.273000000000     1.007825032070
         H            1.988000000000     1.941000000000    -2.799000000000     1.007825032070
         N            1.504000000000    -0.066000000000    -2.982000000000    14.003074004780
         H            0.844000000000    -0.645000000000    -3.469000000000     1.007825032070
         H            2.401000000000    -0.274000000000    -3.380000000000     1.007825032070
         C            0.398000000000    -1.382000000000     0.597000000000    12.000000000000
         O           -0.017000000000    -2.021000000000     1.527000000000    15.994914619560
         N            1.498000000000    -1.727000000000    -0.098000000000    14.003074004780
         H            1.696000000000    -1.242000000000    -0.947000000000     1.007825032070
         C            2.231000000000    -2.933000000000     0.214000000000    12.000000000000
         H            1.674000000000    -3.827000000000    -0.047000000000     1.007825032070
         H            3.162000000000    -2.926000000000    -0.338000000000     1.007825032070
         H            2.452000000000    -2.970000000000     1.271000000000     1.007825032070

  Running in c1 symmetry.

  Rotational constants: A =      0.02656  B =      0.01614  C =      0.01111 [cm^-1]
  Rotational constants: A =    796.33667  B =    483.83151  C =    332.92835 [MHz]
  Nuclear repulsion =  982.229979058135996

  Charge       = 0
  Multiplicity = 1
  Electrons    = 110
  Nalpha       = 55
  Nbeta        = 55

  ==> Algorithm <==

  SCF Algorithm Type is DF.
  DIIS enabled.
  MOM disabled.
  Fractional occupation disabled.
  Guess Type is SAD.
  Energy threshold   = 1.00e-06
  Density threshold  = 1.00e-06
  Integral threshold = 0.00e+00

  ==> Primary Basis <==

  Basis Set: 6-31G*
    Blend: 6-31G*
    Number of shells: 122
    Number of basis function: 248
    Number of Cartesian functions: 248
    Spherical Harmonics?: false
    Max angular momentum: 2

   => Loading Basis Set <=

    Name: (6-31G* AUX)
    Role: JKFIT
    Keyword: DF_BASIS_SCF
    atoms 1, 3-4, 8, 10, 12-13, 15-16, 18-19, 21-22, 24-25, 29, 31-33 entry H          line    51 file /home/hyesu/anaconda3/envs/respyte/share/psi4/basis/cc-pvdz-jkfit.gbs 
    atoms 2, 5, 9, 11, 14, 17, 20, 26, 30                             entry C          line   121 file /home/hyesu/anaconda3/envs/respyte/share/psi4/basis/cc-pvdz-jkfit.gbs 
    atoms 6, 27                                                       entry O          line   221 file /home/hyesu/anaconda3/envs/respyte/share/psi4/basis/cc-pvdz-jkfit.gbs 
    atoms 7, 23, 28                                                   entry N          line   171 file /home/hyesu/anaconda3/envs/respyte/share/psi4/basis/cc-pvdz-jkfit.gbs 

  ==> Pre-Iterations <==

   -------------------------------------------------------
    Irrep   Nso     Nmo     Nalpha   Nbeta   Ndocc  Nsocc
   -------------------------------------------------------
     A        248     248       0       0       0       0
   -------------------------------------------------------
    Total     248     248      55      55      55       0
   -------------------------------------------------------

  ==> Integral Setup <==

  ==> DiskDFJK: Density-Fitted J/K Matrices <==

    J tasked:                  Yes
    K tasked:                  Yes
    wK tasked:                  No
    OpenMP threads:              1
    Integrals threads:           1
    Memory (MB):              8583
    Algorithm:                Core
    Integral Cache:           NONE
    Schwarz Cutoff:          1E-12
    Fitting Condition:       1E-12

   => Auxiliary Basis Set <=

  Basis Set: (6-31G* AUX)
    Blend: CC-PVDZ-JKFIT
    Number of shells: 507
    Number of basis function: 1609
    Number of Cartesian functions: 1609
    Spherical Harmonics?: false
    Max angular momentum: 3

  Minimum eigenvalue in the overlap matrix is 2.3210856975E-03.
  Using Symmetric Orthogonalization.

  SCF Guess: Superposition of Atomic Densities via on-the-fly atomic UHF.

  ==> Iterations <==

                           Total Energy        Delta E     RMS |[F,P]|

   @DF-RHF iter   0:  -671.12211371870239   -6.71122e+02   2.87929e-02 
   @DF-RHF iter   1:  -664.50617265603478    6.61594e+00   3.48950e-03 
   @DF-RHF iter   2:  -664.84904946217148   -3.42877e-01   2.17946e-03 DIIS
   @DF-RHF iter   3:  -664.96030777348597   -1.11258e-01   5.00188e-04 DIIS
   @DF-RHF iter   4:  -664.97240189023955   -1.20941e-02   1.56963e-04 DIIS
   @DF-RHF iter   5:  -664.97356780132964   -1.16591e-03   5.24937e-05 DIIS
   @DF-RHF iter   6:  -664.97378320884184   -2.15408e-04   2.03502e-05 DIIS
   @DF-RHF iter   7:  -664.97381823335252   -3.50245e-05   7.86665e-06 DIIS
   @DF-RHF iter   8:  -664.97382249411646   -4.26076e-06   2.80989e-06 DIIS
   @DF-RHF iter   9:  -664.97382305107840   -5.56962e-07   1.00483e-06 DIIS
   @DF-RHF iter  10:  -664.97382310353851   -5.24601e-08   2.84930e-07 DIIS

  ==> Post-Iterations <==

    Orbital Energies [Eh]
    ---------------------

    Doubly Occupied:                                                      

       1A    -20.510933     2A    -20.510225     3A    -15.569432  
       4A    -15.565710     5A    -15.565096     6A    -11.334250  
       7A    -11.328802     8A    -11.268104     9A    -11.260823  
      10A    -11.247051    11A    -11.226479    12A    -11.217021  
      13A    -11.216651    14A    -11.208723    15A     -1.383847  
      16A     -1.372742    17A     -1.224481    18A     -1.217755  
      19A     -1.202364    20A     -1.076268    21A     -1.023935  
      22A     -0.979266    23A     -0.954179    24A     -0.908190  
      25A     -0.857358    26A     -0.790840    27A     -0.781876  
      28A     -0.748511    29A     -0.709080    30A     -0.689796  
      31A     -0.679247    32A     -0.652134    33A     -0.641413  
      34A     -0.623938    35A     -0.617140    36A     -0.610691  
      37A     -0.605445    38A     -0.584186    39A     -0.576238  
      40A     -0.558032    41A     -0.555480    42A     -0.545663  
      43A     -0.542623    44A     -0.537935    45A     -0.518040  
      46A     -0.503068    47A     -0.499062    48A     -0.480130  
      49A     -0.472815    50A     -0.459076    51A     -0.416456  
      52A     -0.407187    53A     -0.398257    54A     -0.378470  
      55A     -0.370591  

    Virtual:                                                              

      56A      0.194456    57A      0.215804    58A      0.216024  
      59A      0.231064    60A      0.245207    61A      0.253931  
      62A      0.267929    63A      0.281641    64A      0.290660  
      65A      0.295654    66A      0.305844    67A      0.314729  
      68A      0.315947    69A      0.321069    70A      0.332302  
      71A      0.340059    72A      0.343834    73A      0.353473  
      74A      0.358744    75A      0.368066    76A      0.378937  
      77A      0.390002    78A      0.406241    79A      0.417956  
      80A      0.426106    81A      0.442125    82A      0.447490  
      83A      0.466685    84A      0.488867    85A      0.513883  
      86A      0.530612    87A      0.566709    88A      0.605921  
      89A      0.623802    90A      0.711487    91A      0.723787  
      92A      0.731081    93A      0.740662    94A      0.761849  
      95A      0.766667    96A      0.773604    97A      0.783961  
      98A      0.789375    99A      0.804387   100A      0.820209  
     101A      0.846729   102A      0.861351   103A      0.879912  
     104A      0.900966   105A      0.907238   106A      0.936625  
     107A      0.940689   108A      0.950370   109A      0.966395  
     110A      0.982946   111A      0.987497   112A      0.999858  
     113A      1.002807   114A      1.021204   115A      1.045178  
     116A      1.045644   117A      1.059467   118A      1.075532  
     119A      1.092621   120A      1.098494   121A      1.121339  
     122A      1.131070   123A      1.140214   124A      1.145580  
     125A      1.155212   126A      1.159211   127A      1.172074  
     128A      1.173488   129A      1.183757   130A      1.186051  
     131A      1.196202   132A      1.211020   133A      1.212386  
     134A      1.220516   135A      1.223814   136A      1.229478  
     137A      1.236385   138A      1.239310   139A      1.248092  
     140A      1.258577   141A      1.270392   142A      1.282498  
     143A      1.305580   144A      1.313567   145A      1.329688  
     146A      1.372230   147A      1.404913   148A      1.412742  
     149A      1.421482   150A      1.455955   151A      1.487639  
     152A      1.514466   153A      1.569245   154A      1.574730  
     155A      1.589902   156A      1.623836   157A      1.650113  
     158A      1.664585   159A      1.690788   160A      1.727310  
     161A      1.735691   162A      1.753128   163A      1.772095  
     164A      1.799185   165A      1.838875   166A      1.850835  
     167A      1.888864   168A      1.896200   169A      1.938287  
     170A      1.978921   171A      1.997788   172A      2.014716  
     173A      2.039500   174A      2.068692   175A      2.077803  
     176A      2.111052   177A      2.135635   178A      2.142278  
     179A      2.165899   180A      2.179417   181A      2.192592  
     182A      2.200889   183A      2.215673   184A      2.230704  
     185A      2.248739   186A      2.265347   187A      2.280624  
     188A      2.290974   189A      2.306388   190A      2.340800  
     191A      2.353371   192A      2.361043   193A      2.383377  
     194A      2.410877   195A      2.413942   196A      2.430539  
     197A      2.459577   198A      2.467401   199A      2.509887  
     200A      2.515151   201A      2.551402   202A      2.571257  
     203A      2.589591   204A      2.602128   205A      2.625381  
     206A      2.638790   207A      2.692730   208A      2.709531  
     209A      2.732641   210A      2.745475   211A      2.762367  
     212A      2.785549   213A      2.799142   214A      2.814652  
     215A      2.831144   216A      2.851248   217A      2.878063  
     218A      2.920033   219A      2.945939   220A      2.987799  
     221A      2.996155   222A      3.013421   223A      3.040024  
     224A      3.058106   225A      3.083159   226A      3.091439  
     227A      3.119638   228A      3.151752   229A      3.294709  
     230A      3.354838   231A      3.412645   232A      3.438433  
     233A      3.557245   234A      3.587309   235A      4.246337  
     236A      4.398142   237A      4.477974   238A      4.518985  
     239A      4.559832   240A      4.588018   241A      4.681274  
     242A      4.728310   243A      4.790913   244A      4.877033  
     245A      4.898160   246A      4.968213   247A      4.994248  
     248A      5.109559  

    Final Occupation by Irrep:
              A 
    DOCC [    55 ]

  Energy converged.

  @DF-RHF Final Energy:  -664.97382310353851

   => Energetics <=

    Nuclear Repulsion Energy =            982.2299790581359957
    One-Electron Energy =               -2858.0411931060893949
    Two-Electron Energy =                1210.8373909444148921
    Total Energy =                       -664.9738231035385070



Properties will be evaluated at   0.000000,   0.000000,   0.000000 [a0]

Properties computed using the HF density matrix

  Nuclear Dipole Moment: [e a0]
     X:    10.4596      Y:    -6.6518      Z:    -0.0794

  Electronic Dipole Moment: [e a0]
     X:   -10.5214      Y:     6.5159      Z:    -2.6358

  Dipole Moment: [e a0]
     X:    -0.0618      Y:    -0.1360      Z:    -2.7152     Total:     2.7193

  Dipole Moment: [D]
     X:    -0.1571      Y:    -0.3456      Z:    -6.9013     Total:     6.9117


 Field computed on the grid and written to grid_field.dat

 Electrostatic potential computed on the grid and written to grid_esp.dat

*** tstop() called on sophon at Sun Nov 25 20:17:25 2018
Module time:
	user time   =     151.68 seconds =       2.53 minutes
	system time =       0.80 seconds =       0.01 minutes
	total time  =        153 seconds =       2.55 minutes
Total time:
	user time   =     151.68 seconds =       2.53 minutes
	system time =       0.80 seconds =       0.01 minutes
	total time  =        153 seconds =       2.55 minutes

    Psi4 stopped on: Sunday, 25 November 2018 08:17PM
    Psi4 wall time for execution: 0:02:32.52

*** Psi4 exiting successfully. Buy a developer a beer!
