
    -----------------------------------------------------------------------
          Psi4: An Open-Source Ab Initio Electronic Structure Package
                               Psi4 1.2.1 release

                         Git: Rev {HEAD} 406f4de 


    R. M. Parrish, L. A. Burns, D. G. A. Smith, A. C. Simmonett,
    A. E. DePrince III, E. G. Hohenstein, U. Bozkaya, A. Yu. Sokolov,
    R. Di Remigio, R. M. Richard, J. F. Gonthier, A. M. James,
    H. R. McAlexander, A. Kumar, M. Saitow, X. Wang, B. P. Pritchard,
    P. Verma, H. F. Schaefer III, K. Patkowski, R. A. King, E. F. Valeev,
    F. A. Evangelista, J. M. Turney, T. D. Crawford, and C. D. Sherrill,
    J. Chem. Theory Comput. 13(7) pp 3185--3197 (2017).
    (doi: 10.1021/acs.jctc.7b00174)


                         Additional Contributions by
    P. Kraus, H. Kruse, M. H. Lechner, M. C. Schieber, and R. A. Shaw

    -----------------------------------------------------------------------


    Psi4 started on: Sunday, 25 November 2018 08:22PM

    Process ID: 26179
    Host:       sophon
    PSIDATADIR: /home/hyesu/anaconda3/envs/respyte/share/psi4
    Memory:     500.0 MiB
    Threads:    1
    
  ==> Input File <==

--------------------------------------------------------------------------
memory 12 gb
molecule meoh {
noreorient
nocom
0 1
H     5.1350     2.4590    -1.0030
C     4.5790     2.4450    -0.0770
H     4.4280     3.4580     0.2780
H     5.1530     1.9020     0.6680
C     3.2700     1.7240    -0.2950
O     3.0860     0.9930    -1.2270
N     2.3080     1.9800     0.6450
H     2.6690     2.3250     1.5060
C     1.1870     1.0720     0.8120
H     0.6340     1.4520     1.6640
C     0.2420     1.1000    -0.4090
H     0.6660     0.5070    -1.2050
H     0.2390     2.1230    -0.7680
C    -1.1760     0.6580    -0.1330
C    -2.0490     1.1870     0.7540
H    -1.9170     2.0040     1.4360
N    -3.2520     0.5310     0.6990
H    -4.0480     0.7450     1.2530
C    -3.1800    -0.4530    -0.2480
C    -4.1390    -1.3770    -0.6650
H    -5.1230    -1.3960    -0.2310
C    -3.7790    -2.2610    -1.6530
H    -4.4940    -2.9870    -1.9990
C    -2.4950    -2.2370    -2.2230
H    -2.2500    -2.9420    -2.9970
C    -1.5560    -1.3230    -1.8090
H    -0.5780    -1.3090    -2.2560
C    -1.8940    -0.4090    -0.8010
C     1.7170    -0.3040     1.2650
O     2.7910    -0.3820     1.8040
N     0.9190    -1.3690     1.0990
H     0.0300    -1.2630     0.6710
C     1.3240    -2.6840     1.5470
H     1.4420    -2.7130     2.6230
H     2.2650    -2.9690     1.0950
H     0.5620    -3.3940     1.2550
}
set {
basis 6-31g*
}
E,wfn = prop('HF' , properties = ['GRID_ESP', 'GRID_FIELD'], return_wfn=True)
--------------------------------------------------------------------------

  Memory set to  11.176 GiB by Python driver.

*** tstart() called on sophon
*** at Sun Nov 25 20:22:28 2018

   => Loading Basis Set <=

    Name: 6-31G*
    Role: ORBITAL
    Keyword: BASIS
    atoms 1, 3-4, 8, 10, 12-13, 16, 18, 21, 23, 25, 27, 32, 34-36 entry H          line    44 file /home/hyesu/anaconda3/envs/respyte/share/psi4/basis/6-31gs.gbs 
    atoms 2, 5, 9, 11, 14-15, 19-20, 22, 24, 26, 28-29, 33        entry C          line   111 file /home/hyesu/anaconda3/envs/respyte/share/psi4/basis/6-31gs.gbs 
    atoms 6, 30                                                   entry O          line   145 file /home/hyesu/anaconda3/envs/respyte/share/psi4/basis/6-31gs.gbs 
    atoms 7, 17, 31                                               entry N          line   128 file /home/hyesu/anaconda3/envs/respyte/share/psi4/basis/6-31gs.gbs 


         ---------------------------------------------------------
                                   SCF
            by Justin Turney, Rob Parrish, Andy Simmonett
                             and Daniel Smith
                              RHF Reference
                        1 Threads,  11444 MiB Core
         ---------------------------------------------------------

  ==> Geometry <==

    Molecular point group: c1
    Full point group: C1

    Geometry (in Angstrom), charge = 0, multiplicity = 1:

       Center              X                  Y                   Z               Mass       
    ------------   -----------------  -----------------  -----------------  -----------------
         H            5.135000000000     2.459000000000    -1.003000000000     1.007825032070
         C            4.579000000000     2.445000000000    -0.077000000000    12.000000000000
         H            4.428000000000     3.458000000000     0.278000000000     1.007825032070
         H            5.153000000000     1.902000000000     0.668000000000     1.007825032070
         C            3.270000000000     1.724000000000    -0.295000000000    12.000000000000
         O            3.086000000000     0.993000000000    -1.227000000000    15.994914619560
         N            2.308000000000     1.980000000000     0.645000000000    14.003074004780
         H            2.669000000000     2.325000000000     1.506000000000     1.007825032070
         C            1.187000000000     1.072000000000     0.812000000000    12.000000000000
         H            0.634000000000     1.452000000000     1.664000000000     1.007825032070
         C            0.242000000000     1.100000000000    -0.409000000000    12.000000000000
         H            0.666000000000     0.507000000000    -1.205000000000     1.007825032070
         H            0.239000000000     2.123000000000    -0.768000000000     1.007825032070
         C           -1.176000000000     0.658000000000    -0.133000000000    12.000000000000
         C           -2.049000000000     1.187000000000     0.754000000000    12.000000000000
         H           -1.917000000000     2.004000000000     1.436000000000     1.007825032070
         N           -3.252000000000     0.531000000000     0.699000000000    14.003074004780
         H           -4.048000000000     0.745000000000     1.253000000000     1.007825032070
         C           -3.180000000000    -0.453000000000    -0.248000000000    12.000000000000
         C           -4.139000000000    -1.377000000000    -0.665000000000    12.000000000000
         H           -5.123000000000    -1.396000000000    -0.231000000000     1.007825032070
         C           -3.779000000000    -2.261000000000    -1.653000000000    12.000000000000
         H           -4.494000000000    -2.987000000000    -1.999000000000     1.007825032070
         C           -2.495000000000    -2.237000000000    -2.223000000000    12.000000000000
         H           -2.250000000000    -2.942000000000    -2.997000000000     1.007825032070
         C           -1.556000000000    -1.323000000000    -1.809000000000    12.000000000000
         H           -0.578000000000    -1.309000000000    -2.256000000000     1.007825032070
         C           -1.894000000000    -0.409000000000    -0.801000000000    12.000000000000
         C            1.717000000000    -0.304000000000     1.265000000000    12.000000000000
         O            2.791000000000    -0.382000000000     1.804000000000    15.994914619560
         N            0.919000000000    -1.369000000000     1.099000000000    14.003074004780
         H            0.030000000000    -1.263000000000     0.671000000000     1.007825032070
         C            1.324000000000    -2.684000000000     1.547000000000    12.000000000000
         H            1.442000000000    -2.713000000000     2.623000000000     1.007825032070
         H            2.265000000000    -2.969000000000     1.095000000000     1.007825032070
         H            0.562000000000    -3.394000000000     1.255000000000     1.007825032070

  Running in c1 symmetry.

  Rotational constants: A =      0.02375  B =      0.00706  C =      0.00671 [cm^-1]
  Rotational constants: A =    712.15556  B =    211.77224  C =    201.16662 [MHz]
  Nuclear repulsion = 1429.296548865461546

  Charge       = 0
  Multiplicity = 1
  Electrons    = 138
  Nalpha       = 69
  Nbeta        = 69

  ==> Algorithm <==

  SCF Algorithm Type is DF.
  DIIS enabled.
  MOM disabled.
  Fractional occupation disabled.
  Guess Type is SAD.
  Energy threshold   = 1.00e-06
  Density threshold  = 1.00e-06
  Integral threshold = 0.00e+00

  ==> Primary Basis <==

  Basis Set: 6-31G*
    Blend: 6-31G*
    Number of shells: 148
    Number of basis function: 319
    Number of Cartesian functions: 319
    Spherical Harmonics?: false
    Max angular momentum: 2

   => Loading Basis Set <=

    Name: (6-31G* AUX)
    Role: JKFIT
    Keyword: DF_BASIS_SCF
    atoms 1, 3-4, 8, 10, 12-13, 16, 18, 21, 23, 25, 27, 32, 34-36 entry H          line    51 file /home/hyesu/anaconda3/envs/respyte/share/psi4/basis/cc-pvdz-jkfit.gbs 
    atoms 2, 5, 9, 11, 14-15, 19-20, 22, 24, 26, 28-29, 33        entry C          line   121 file /home/hyesu/anaconda3/envs/respyte/share/psi4/basis/cc-pvdz-jkfit.gbs 
    atoms 6, 30                                                   entry O          line   221 file /home/hyesu/anaconda3/envs/respyte/share/psi4/basis/cc-pvdz-jkfit.gbs 
    atoms 7, 17, 31                                               entry N          line   171 file /home/hyesu/anaconda3/envs/respyte/share/psi4/basis/cc-pvdz-jkfit.gbs 

  ==> Pre-Iterations <==

   -------------------------------------------------------
    Irrep   Nso     Nmo     Nalpha   Nbeta   Ndocc  Nsocc
   -------------------------------------------------------
     A        319     319       0       0       0       0
   -------------------------------------------------------
    Total     319     319      69      69      69       0
   -------------------------------------------------------

  ==> Integral Setup <==

  ==> DiskDFJK: Density-Fitted J/K Matrices <==

    J tasked:                  Yes
    K tasked:                  Yes
    wK tasked:                  No
    OpenMP threads:              1
    Integrals threads:           1
    Memory (MB):              8583
    Algorithm:                Core
    Integral Cache:           NONE
    Schwarz Cutoff:          1E-12
    Fitting Condition:       1E-12

   => Auxiliary Basis Set <=

  Basis Set: (6-31G* AUX)
    Blend: CC-PVDZ-JKFIT
    Number of shells: 609
    Number of basis function: 1964
    Number of Cartesian functions: 1964
    Spherical Harmonics?: false
    Max angular momentum: 3

  Minimum eigenvalue in the overlap matrix is 3.4636918408E-04.
  Using Symmetric Orthogonalization.

  SCF Guess: Superposition of Atomic Densities via on-the-fly atomic UHF.

  ==> Iterations <==

                           Total Energy        Delta E     RMS |[F,P]|

   @DF-RHF iter   0:  -864.71902071121281   -8.64719e+02   2.70790e-02 
   @DF-RHF iter   1:  -852.68430990302227    1.20347e+01   2.59347e-03 
   @DF-RHF iter   2:  -853.04718595700899   -3.62876e-01   1.52689e-03 DIIS
   @DF-RHF iter   3:  -853.14439145021561   -9.72055e-02   4.45293e-04 DIIS
   @DF-RHF iter   4:  -853.16056925156010   -1.61778e-02   1.04257e-04 DIIS
   @DF-RHF iter   5:  -853.16185532864233   -1.28608e-03   4.18551e-05 DIIS
   @DF-RHF iter   6:  -853.16208023035313   -2.24902e-04   1.60366e-05 DIIS
   @DF-RHF iter   7:  -853.16210996593895   -2.97356e-05   5.66090e-06 DIIS
   @DF-RHF iter   8:  -853.16211386657017   -3.90063e-06   2.41827e-06 DIIS
   @DF-RHF iter   9:  -853.16211474973193   -8.83162e-07   9.00131e-07 DIIS

  ==> Post-Iterations <==

    Orbital Energies [Eh]
    ---------------------

    Doubly Occupied:                                                      

       1A    -20.520049     2A    -20.512303     3A    -15.611841  
       4A    -15.574121     5A    -15.573818     6A    -11.340569  
       7A    -11.335481     8A    -11.277969     9A    -11.271902  
      10A    -11.269665    11A    -11.247964    12A    -11.235154  
      13A    -11.233771    14A    -11.232725    15A    -11.229408  
      16A    -11.228961    17A    -11.227399    18A    -11.223724  
      19A    -11.222482    20A     -1.391160    21A     -1.378362  
      22A     -1.309429    23A     -1.229881    24A     -1.223299  
      25A     -1.139884    26A     -1.091241    27A     -1.037312  
      28A     -1.006062    29A     -0.994928    30A     -0.974857  
      31A     -0.944396    32A     -0.888762    33A     -0.850264  
      34A     -0.813278    35A     -0.791798    36A     -0.774537  
      37A     -0.761128    38A     -0.737200    39A     -0.703476  
      40A     -0.695140    41A     -0.667040    42A     -0.655927  
      43A     -0.647063    44A     -0.628464    45A     -0.615736  
      46A     -0.611462    47A     -0.607542    48A     -0.602793  
      49A     -0.595672    50A     -0.585057    51A     -0.583378  
      52A     -0.567009    53A     -0.554269    54A     -0.552689  
      55A     -0.545191    56A     -0.536210    57A     -0.527501  
      58A     -0.509517    59A     -0.502666    60A     -0.492676  
      61A     -0.479316    62A     -0.471962    63A     -0.417174  
      64A     -0.411122    65A     -0.393310    66A     -0.379767  
      67A     -0.378342    68A     -0.305661    69A     -0.287647  

    Virtual:                                                              

      70A      0.123856    71A      0.168187    72A      0.197029  
      73A      0.209263    74A      0.219449    75A      0.220648  
      76A      0.234955    77A      0.247071    78A      0.261204  
      79A      0.261912    80A      0.276386    81A      0.288902  
      82A      0.296264    83A      0.301872    84A      0.312514  
      85A      0.320195    86A      0.327124    87A      0.331668  
      88A      0.343771    89A      0.347978    90A      0.353791  
      91A      0.369673    92A      0.382949    93A      0.383839  
      94A      0.393733    95A      0.413894    96A      0.433978  
      97A      0.435613    98A      0.443080    99A      0.467011  
     100A      0.476110   101A      0.494373   102A      0.503226  
     103A      0.525354   104A      0.526274   105A      0.547664  
     106A      0.565123   107A      0.580859   108A      0.604143  
     109A      0.634031   110A      0.666547   111A      0.700532  
     112A      0.709675   113A      0.721962   114A      0.749137  
     115A      0.753180   116A      0.759492   117A      0.761087  
     118A      0.771183   119A      0.773613   120A      0.780774  
     121A      0.788183   122A      0.799299   123A      0.804460  
     124A      0.817907   125A      0.823345   126A      0.830706  
     127A      0.836396   128A      0.840124   129A      0.847603  
     130A      0.855844   131A      0.860804   132A      0.867292  
     133A      0.890426   134A      0.900329   135A      0.902978  
     136A      0.922248   137A      0.933204   138A      0.937637  
     139A      0.951669   140A      0.969506   141A      0.984529  
     142A      0.990934   143A      1.008814   144A      1.020851  
     145A      1.031103   146A      1.053973   147A      1.057273  
     148A      1.073151   149A      1.084140   150A      1.087506  
     151A      1.094247   152A      1.099957   153A      1.112930  
     154A      1.116224   155A      1.124266   156A      1.125210  
     157A      1.143674   158A      1.149800   159A      1.154154  
     160A      1.156864   161A      1.168384   162A      1.173682  
     163A      1.185215   164A      1.193828   165A      1.200066  
     166A      1.204475   167A      1.211785   168A      1.214388  
     169A      1.219855   170A      1.225683   171A      1.232954  
     172A      1.244427   173A      1.249676   174A      1.256553  
     175A      1.279515   176A      1.297968   177A      1.313134  
     178A      1.336169   179A      1.346862   180A      1.350741  
     181A      1.370827   182A      1.389885   183A      1.414231  
     184A      1.426955   185A      1.464747   186A      1.468344  
     187A      1.493774   188A      1.496335   189A      1.529495  
     190A      1.544350   191A      1.563602   192A      1.574674  
     193A      1.593428   194A      1.610237   195A      1.618571  
     196A      1.639195   197A      1.649524   198A      1.676253  
     199A      1.689418   200A      1.699383   201A      1.707192  
     202A      1.716429   203A      1.718858   204A      1.744853  
     205A      1.762547   206A      1.774240   207A      1.779364  
     208A      1.784414   209A      1.789792   210A      1.792540  
     211A      1.844405   212A      1.882521   213A      1.892782  
     214A      1.933573   215A      1.954918   216A      1.994276  
     217A      2.010254   218A      2.030423   219A      2.051304  
     220A      2.082535   221A      2.101576   222A      2.104294  
     223A      2.124691   224A      2.139959   225A      2.146528  
     226A      2.152447   227A      2.184803   228A      2.199150  
     229A      2.201763   230A      2.210768   231A      2.233160  
     232A      2.237286   233A      2.250013   234A      2.283418  
     235A      2.287101   236A      2.298477   237A      2.310065  
     238A      2.312556   239A      2.332668   240A      2.364017  
     241A      2.370128   242A      2.377391   243A      2.396636  
     244A      2.401551   245A      2.411139   246A      2.426490  
     247A      2.438960   248A      2.469853   249A      2.478312  
     250A      2.495664   251A      2.508072   252A      2.512282  
     253A      2.542229   254A      2.553993   255A      2.571430  
     256A      2.589126   257A      2.594933   258A      2.602761  
     259A      2.613979   260A      2.621890   261A      2.628365  
     262A      2.694910   263A      2.701812   264A      2.725340  
     265A      2.740776   266A      2.755608   267A      2.770079  
     268A      2.790723   269A      2.817104   270A      2.828401  
     271A      2.844309   272A      2.869372   273A      2.903059  
     274A      2.925272   275A      2.932023   276A      2.952063  
     277A      2.976300   278A      2.996141   279A      3.017329  
     280A      3.024210   281A      3.039230   282A      3.053001  
     283A      3.069229   284A      3.083731   285A      3.114254  
     286A      3.124970   287A      3.142454   288A      3.188725  
     289A      3.240479   290A      3.292437   291A      3.307488  
     292A      3.343395   293A      3.392361   294A      3.409042  
     295A      3.418625   296A      3.534643   297A      3.552655  
     298A      3.589274   299A      3.641033   300A      3.862501  
     301A      4.395308   302A      4.457343   303A      4.499751  
     304A      4.509216   305A      4.530392   306A      4.552522  
     307A      4.592965   308A      4.614333   309A      4.663808  
     310A      4.674788   311A      4.717269   312A      4.766100  
     313A      4.814048   314A      4.843384   315A      4.882871  
     316A      4.921736   317A      5.021427   318A      5.116317  
     319A      5.250841  

    Final Occupation by Irrep:
              A 
    DOCC [    69 ]

  Energy converged.

  @DF-RHF Final Energy:  -853.16211474973193

   => Energetics <=

    Nuclear Repulsion Energy =           1429.2965488654615456
    One-Electron Energy =               -4002.4815016961515539
    Two-Electron Energy =                1720.0228380809583086
    Total Energy =                       -853.1621147497319271



Properties will be evaluated at   0.000000,   0.000000,   0.000000 [a0]

Properties computed using the HF density matrix

  Nuclear Dipole Moment: [e a0]
     X:     7.4833      Y:   -11.8826      Z:     0.1833

  Electronic Dipole Moment: [e a0]
     X:    -9.2579      Y:    12.5182      Z:     0.8932

  Dipole Moment: [e a0]
     X:    -1.7746      Y:     0.6356      Z:     1.0765     Total:     2.1707

  Dipole Moment: [D]
     X:    -4.5106      Y:     1.6155      Z:     2.7361     Total:     5.5174


 Field computed on the grid and written to grid_field.dat

 Electrostatic potential computed on the grid and written to grid_esp.dat

*** tstop() called on sophon at Sun Nov 25 20:27:12 2018
Module time:
	user time   =     282.54 seconds =       4.71 minutes
	system time =       1.52 seconds =       0.03 minutes
	total time  =        284 seconds =       4.73 minutes
Total time:
	user time   =     282.54 seconds =       4.71 minutes
	system time =       1.52 seconds =       0.03 minutes
	total time  =        284 seconds =       4.73 minutes

    Psi4 stopped on: Sunday, 25 November 2018 08:27PM
    Psi4 wall time for execution: 0:04:44.10

*** Psi4 exiting successfully. Buy a developer a beer!
